 Entering Gaussian System, Link 0=g09
 Input=Ala_nat.com
 Output=Ala_nat.log
 Initial command:
 /hits/fast/mbm/software/gaussian/g09d1/g09/l1.exe "/hits/fast/mbm/hartmaec/gaussian_scratch/Gau-13517.inp" -scrdir="/hits/fast/mbm/hartmaec/gaussian_scratch/"
 Entering Link 1 = /hits/fast/mbm/software/gaussian/g09d1/g09/l1.exe PID=     13518.
  
 Copyright (c) 1988,1990,1992,1993,1995,1998,2003,2009,2013,
            Gaussian, Inc.  All Rights Reserved.
  
 This is part of the Gaussian(R) 09 program.  It is based on
 the Gaussian(R) 03 system (copyright 2003, Gaussian, Inc.),
 the Gaussian(R) 98 system (copyright 1998, Gaussian, Inc.),
 the Gaussian(R) 94 system (copyright 1995, Gaussian, Inc.),
 the Gaussian 92(TM) system (copyright 1992, Gaussian, Inc.),
 the Gaussian 90(TM) system (copyright 1990, Gaussian, Inc.),
 the Gaussian 88(TM) system (copyright 1988, Gaussian, Inc.),
 the Gaussian 86(TM) system (copyright 1986, Carnegie Mellon
 University), and the Gaussian 82(TM) system (copyright 1983,
 Carnegie Mellon University). Gaussian is a federally registered
 trademark of Gaussian, Inc.
  
 This software contains proprietary and confidential information,
 including trade secrets, belonging to Gaussian, Inc.
  
 This software is provided under written license and may be
 used, copied, transmitted, or stored only in accord with that
 written license.
  
 The following legend is applicable only to US Government
 contracts under FAR:
  
                    RESTRICTED RIGHTS LEGEND
  
 Use, reproduction and disclosure by the US Government is
 subject to restrictions as set forth in subparagraphs (a)
 and (c) of the Commercial Computer Software - Restricted
 Rights clause in FAR 52.227-19.
  
 Gaussian, Inc.
 340 Quinnipiac St., Bldg. 40, Wallingford CT 06492
  
  
 ---------------------------------------------------------------
 Warning -- This program may not be used in any manner that
 competes with the business of Gaussian, Inc. or will provide
 assistance to any competitor of Gaussian, Inc.  The licensee
 of this program is prohibited from giving any competitor of
 Gaussian, Inc. access to this program.  By using this program,
 the user acknowledges that Gaussian, Inc. is engaged in the
 business of creating and licensing software in the field of
 computational chemistry and represents and warrants to the
 licensee that it is not a competitor of Gaussian, Inc. and that
 it will not use this program in any manner prohibited above.
 ---------------------------------------------------------------
  

 Cite this work as:
 Gaussian 09, Revision D.01,
 M. J. Frisch, G. W. Trucks, H. B. Schlegel, G. E. Scuseria, 
 M. A. Robb, J. R. Cheeseman, G. Scalmani, V. Barone, B. Mennucci, 
 G. A. Petersson, H. Nakatsuji, M. Caricato, X. Li, H. P. Hratchian, 
 A. F. Izmaylov, J. Bloino, G. Zheng, J. L. Sonnenberg, M. Hada, 
 M. Ehara, K. Toyota, R. Fukuda, J. Hasegawa, M. Ishida, T. Nakajima, 
 Y. Honda, O. Kitao, H. Nakai, T. Vreven, J. A. Montgomery, Jr., 
 J. E. Peralta, F. Ogliaro, M. Bearpark, J. J. Heyd, E. Brothers, 
 K. N. Kudin, V. N. Staroverov, T. Keith, R. Kobayashi, J. Normand, 
 K. Raghavachari, A. Rendell, J. C. Burant, S. S. Iyengar, J. Tomasi, 
 M. Cossi, N. Rega, J. M. Millam, M. Klene, J. E. Knox, J. B. Cross, 
 V. Bakken, C. Adamo, J. Jaramillo, R. Gomperts, R. E. Stratmann, 
 O. Yazyev, A. J. Austin, R. Cammi, C. Pomelli, J. W. Ochterski, 
 R. L. Martin, K. Morokuma, V. G. Zakrzewski, G. A. Voth, 
 P. Salvador, J. J. Dannenberg, S. Dapprich, A. D. Daniels, 
 O. Farkas, J. B. Foresman, J. V. Ortiz, J. Cioslowski, 
 and D. J. Fox, Gaussian, Inc., Wallingford CT, 2013.
 
 ******************************************
 Gaussian 09:  ES64L-G09RevD.01 24-Apr-2013
                13-Apr-2022 
 ******************************************
 %mem=36GB
 %NProcShared=18
 Will use up to   18 processors via shared memory.
 %rwf=Ala_nat.rwf
 %chk=Ala_nat.chk
 -----------------------------------------------------------------
 #p BMK/6-31+g(2df,p) Opt=(calcfc,modredundant) nosymmetry scf=xqc
 -----------------------------------------------------------------
 1/10=4,14=-1,18=120,19=15,26=3,38=1/1,3;
 2/9=110,12=2,15=1,17=6,18=5,40=1/2;
 3/5=1,6=6,7=114,11=2,16=1,25=1,30=1,71=2,74=-34,140=1/1,2,3;
 4//1;
 5/5=2,8=3,13=1,38=5/2,8;
 8/6=4,10=90,11=11/1;
 11/6=1,8=1,9=11,15=111,16=1,31=1/1,2,10;
 10/6=1,13=1,31=1/2;
 6/7=2,8=2,9=2,10=2,28=1/1;
 7/10=1,18=20,25=1,30=1/1,2,3,16;
 1/10=4,14=-1,18=20,19=15,26=3/3(2);
 2/9=110,15=1/2;
 99//99;
 2/9=110,15=1/2;
 3/5=1,6=6,7=114,11=2,16=1,25=1,30=1,71=1,74=-34/1,2,3;
 4/5=5,16=3,69=1/1;
 5/5=2,8=3,13=1,38=5/2,8;
 7/30=1/1,2,3,16;
 1/14=-1,18=20,19=15,26=3/3(-5);
 2/9=110,15=1/2;
 6/7=2,8=2,9=2,10=2,19=2,28=1/1;
 99/9=1/99;
 Leave Link    1 at Wed Apr 13 01:20:16 2022, MaxMem=  4831838208 cpu:         3.6
 (Enter /hits/fast/mbm/software/gaussian/g09d1/g09/l101.exe)
 -------
 Ala_nat
 -------
 Symbolic Z-matrix:
 Charge =  0 Multiplicity = 1
 C                    -0.61      0.3      -0.02 
 H                    -0.72      1.13      0.51 
 H                    -1.2       0.33     -0.83 
 H                    -0.84     -0.49      0.54 
 C                     0.83      0.18     -0.47 
 O                     1.22     -0.76     -1.15 
 N                     1.63      1.21     -0.06 
 H                     1.23      1.96      0.46 
 C                     3.06      1.23     -0.34 
 H                     3.39      0.29     -0.28 
 C                     3.34      1.74     -1.75 
 H                     4.32      1.74     -1.92 
 H                     2.89      1.13     -2.41 
 H                     2.98      2.66     -1.85 
 C                     3.74      2.14      0.71 
 O                     3.08      2.86      1.47 
 N                     5.12      2.09      0.72 
 H                     5.59      1.45      0.11 
 C                     5.89      2.94      1.59 
 H                     6.86      2.75      1.46 
 H                     5.7       3.89      1.38 
 H                     5.64      2.75      2.55 
 
 The following ModRedundant input section has been read:
 
 NAtoms=     22 NQM=       22 NQMF=       0 NMMI=      0 NMMIF=      0
                NMic=       0 NMicF=      0.
                    Isotopes and Nuclear Properties:
 (Nuclear quadrupole moments (NQMom) in fm**2, nuclear magnetic moments (NMagM)
  in nuclear magnetons)

  Atom         1           2           3           4           5           6           7           8           9          10
 IAtWgt=          12           1           1           1          12          16          14           1          12           1
 AtmWgt=  12.0000000   1.0078250   1.0078250   1.0078250  12.0000000  15.9949146  14.0030740   1.0078250  12.0000000   1.0078250
 NucSpn=           0           1           1           1           0           0           2           1           0           1
 AtZEff=   0.0000000   0.0000000   0.0000000   0.0000000   0.0000000   0.0000000   0.0000000   0.0000000   0.0000000   0.0000000
 NQMom=    0.0000000   0.0000000   0.0000000   0.0000000   0.0000000   0.0000000   2.0440000   0.0000000   0.0000000   0.0000000
 NMagM=    0.0000000   2.7928460   2.7928460   2.7928460   0.0000000   0.0000000   0.4037610   2.7928460   0.0000000   2.7928460
 AtZNuc=   6.0000000   1.0000000   1.0000000   1.0000000   6.0000000   8.0000000   7.0000000   1.0000000   6.0000000   1.0000000

  Atom        11          12          13          14          15          16          17          18          19          20
 IAtWgt=          12           1           1           1          12          16          14           1          12           1
 AtmWgt=  12.0000000   1.0078250   1.0078250   1.0078250  12.0000000  15.9949146  14.0030740   1.0078250  12.0000000   1.0078250
 NucSpn=           0           1           1           1           0           0           2           1           0           1
 AtZEff=   0.0000000   0.0000000   0.0000000   0.0000000   0.0000000   0.0000000   0.0000000   0.0000000   0.0000000   0.0000000
 NQMom=    0.0000000   0.0000000   0.0000000   0.0000000   0.0000000   0.0000000   2.0440000   0.0000000   0.0000000   0.0000000
 NMagM=    0.0000000   2.7928460   2.7928460   2.7928460   0.0000000   0.0000000   0.4037610   2.7928460   0.0000000   2.7928460
 AtZNuc=   6.0000000   1.0000000   1.0000000   1.0000000   6.0000000   8.0000000   7.0000000   1.0000000   6.0000000   1.0000000

  Atom        21          22
 IAtWgt=           1           1
 AtmWgt=   1.0078250   1.0078250
 NucSpn=           1           1
 AtZEff=   0.0000000   0.0000000
 NQMom=    0.0000000   0.0000000
 NMagM=    2.7928460   2.7928460
 AtZNuc=   1.0000000   1.0000000
 Leave Link  101 at Wed Apr 13 01:20:16 2022, MaxMem=  4831838208 cpu:         3.9
 (Enter /hits/fast/mbm/software/gaussian/g09d1/g09/l103.exe)

 GradGradGradGradGradGradGradGradGradGradGradGradGradGradGradGradGradGrad
 Berny optimization.
 Initialization pass.
                           ----------------------------
                           !    Initial Parameters    !
                           ! (Angstroms and Degrees)  !
 --------------------------                            --------------------------
 ! Name  Definition              Value          Derivative Info.                !
 --------------------------------------------------------------------------------
 ! R1    R(1,2)                  0.9909         calculate D2E/DX2 analytically  !
 ! R2    R(1,3)                  1.0025         calculate D2E/DX2 analytically  !
 ! R3    R(1,4)                  0.9953         calculate D2E/DX2 analytically  !
 ! R4    R(1,5)                  1.5134         calculate D2E/DX2 analytically  !
 ! R5    R(5,6)                  1.224          calculate D2E/DX2 analytically  !
 ! R6    R(5,7)                  1.3671         calculate D2E/DX2 analytically  !
 ! R7    R(7,8)                  0.9964         calculate D2E/DX2 analytically  !
 ! R8    R(7,9)                  1.4573         calculate D2E/DX2 analytically  !
 ! R9    R(9,10)                 0.998          calculate D2E/DX2 analytically  !
 ! R10   R(9,11)                 1.5253         calculate D2E/DX2 analytically  !
 ! R11   R(9,15)                 1.5469         calculate D2E/DX2 analytically  !
 ! R12   R(11,12)                0.9946         calculate D2E/DX2 analytically  !
 ! R13   R(11,13)                1.0051         calculate D2E/DX2 analytically  !
 ! R14   R(11,14)                0.993          calculate D2E/DX2 analytically  !
 ! R15   R(15,16)                1.2376         calculate D2E/DX2 analytically  !
 ! R16   R(15,17)                1.3809         calculate D2E/DX2 analytically  !
 ! R17   R(17,18)                1.0013         calculate D2E/DX2 analytically  !
 ! R18   R(17,19)                1.4395         calculate D2E/DX2 analytically  !
 ! R19   R(19,20)                0.9969         calculate D2E/DX2 analytically  !
 ! R20   R(19,21)                0.9913         calculate D2E/DX2 analytically  !
 ! R21   R(19,22)                1.01           calculate D2E/DX2 analytically  !
 ! A1    A(2,1,3)              109.9832         calculate D2E/DX2 analytically  !
 ! A2    A(2,1,4)              109.7705         calculate D2E/DX2 analytically  !
 ! A3    A(2,1,5)              109.3338         calculate D2E/DX2 analytically  !
 ! A4    A(3,1,4)              110.0198         calculate D2E/DX2 analytically  !
 ! A5    A(3,1,5)              108.7892         calculate D2E/DX2 analytically  !
 ! A6    A(4,1,5)              108.9193         calculate D2E/DX2 analytically  !
 ! A7    A(1,5,6)              121.9554         calculate D2E/DX2 analytically  !
 ! A8    A(1,5,7)              114.0711         calculate D2E/DX2 analytically  !
 ! A9    A(6,5,7)              123.9711         calculate D2E/DX2 analytically  !
 ! A10   A(5,7,8)              119.2536         calculate D2E/DX2 analytically  !
 ! A11   A(5,7,9)              121.7985         calculate D2E/DX2 analytically  !
 ! A12   A(8,7,9)              118.937          calculate D2E/DX2 analytically  !
 ! A13   A(7,9,10)             107.4562         calculate D2E/DX2 analytically  !
 ! A14   A(7,9,11)             111.2434         calculate D2E/DX2 analytically  !
 ! A15   A(7,9,15)             107.9993         calculate D2E/DX2 analytically  !
 ! A16   A(10,9,11)            108.0463         calculate D2E/DX2 analytically  !
 ! A17   A(10,9,15)            111.5859         calculate D2E/DX2 analytically  !
 ! A18   A(11,9,15)            110.4912         calculate D2E/DX2 analytically  !
 ! A19   A(9,11,12)            109.8075         calculate D2E/DX2 analytically  !
 ! A20   A(9,11,13)            108.7779         calculate D2E/DX2 analytically  !
 ! A21   A(9,11,14)            109.6532         calculate D2E/DX2 analytically  !
 ! A22   A(12,11,13)           109.202          calculate D2E/DX2 analytically  !
 ! A23   A(12,11,14)           109.8768         calculate D2E/DX2 analytically  !
 ! A24   A(13,11,14)           109.5032         calculate D2E/DX2 analytically  !
 ! A25   A(9,15,16)            121.6441         calculate D2E/DX2 analytically  !
 ! A26   A(9,15,17)            115.0175         calculate D2E/DX2 analytically  !
 ! A27   A(16,15,17)           123.3364         calculate D2E/DX2 analytically  !
 ! A28   A(15,17,18)           119.1962         calculate D2E/DX2 analytically  !
 ! A29   A(15,17,19)           121.1662         calculate D2E/DX2 analytically  !
 ! A30   A(18,17,19)           119.6376         calculate D2E/DX2 analytically  !
 ! A31   A(17,19,20)           109.2138         calculate D2E/DX2 analytically  !
 ! A32   A(17,19,21)           109.5913         calculate D2E/DX2 analytically  !
 ! A33   A(17,19,22)           109.3262         calculate D2E/DX2 analytically  !
 ! A34   A(20,19,21)           109.9683         calculate D2E/DX2 analytically  !
 ! A35   A(20,19,22)           109.2026         calculate D2E/DX2 analytically  !
 ! A36   A(21,19,22)           109.5223         calculate D2E/DX2 analytically  !
 ! D1    D(2,1,5,6)           -179.5313         calculate D2E/DX2 analytically  !
 ! D2    D(2,1,5,7)             -0.0834         calculate D2E/DX2 analytically  !
 ! D3    D(3,1,5,6)            -59.4041         calculate D2E/DX2 analytically  !
 ! D4    D(3,1,5,7)            120.0439         calculate D2E/DX2 analytically  !
 ! D5    D(4,1,5,6)             60.5217         calculate D2E/DX2 analytically  !
 ! D6    D(4,1,5,7)           -120.0304         calculate D2E/DX2 analytically  !
 ! D7    D(1,5,7,8)             -2.0007         calculate D2E/DX2 analytically  !
 ! D8    D(1,5,7,9)            176.784          calculate D2E/DX2 analytically  !
 ! D9    D(6,5,7,8)            177.4345         calculate D2E/DX2 analytically  !
 ! D10   D(6,5,7,9)             -3.7809         calculate D2E/DX2 analytically  !
 ! D11   D(5,7,9,10)           -35.9733         calculate D2E/DX2 analytically  !
 ! D12   D(5,7,9,11)            82.1039         calculate D2E/DX2 analytically  !
 ! D13   D(5,7,9,15)          -156.4822         calculate D2E/DX2 analytically  !
 ! D14   D(8,7,9,10)           142.8151         calculate D2E/DX2 analytically  !
 ! D15   D(8,7,9,11)           -99.1078         calculate D2E/DX2 analytically  !
 ! D16   D(8,7,9,15)            22.3062         calculate D2E/DX2 analytically  !
 ! D17   D(7,9,11,12)         -179.6832         calculate D2E/DX2 analytically  !
 ! D18   D(7,9,11,13)          -60.2312         calculate D2E/DX2 analytically  !
 ! D19   D(7,9,11,14)           59.4955         calculate D2E/DX2 analytically  !
 ! D20   D(10,9,11,12)         -61.9628         calculate D2E/DX2 analytically  !
 ! D21   D(10,9,11,13)          57.4891         calculate D2E/DX2 analytically  !
 ! D22   D(10,9,11,14)         177.2159         calculate D2E/DX2 analytically  !
 ! D23   D(15,9,11,12)          60.3694         calculate D2E/DX2 analytically  !
 ! D24   D(15,9,11,13)         179.8214         calculate D2E/DX2 analytically  !
 ! D25   D(15,9,11,14)         -60.4519         calculate D2E/DX2 analytically  !
 ! D26   D(7,9,15,16)          -10.7554         calculate D2E/DX2 analytically  !
 ! D27   D(7,9,15,17)          169.7357         calculate D2E/DX2 analytically  !
 ! D28   D(10,9,15,16)        -128.6437         calculate D2E/DX2 analytically  !
 ! D29   D(10,9,15,17)          51.8474         calculate D2E/DX2 analytically  !
 ! D30   D(11,9,15,16)         111.1238         calculate D2E/DX2 analytically  !
 ! D31   D(11,9,15,17)         -68.3851         calculate D2E/DX2 analytically  !
 ! D32   D(9,15,17,18)          -3.635          calculate D2E/DX2 analytically  !
 ! D33   D(9,15,17,19)         176.365          calculate D2E/DX2 analytically  !
 ! D34   D(16,15,17,18)        176.8654         calculate D2E/DX2 analytically  !
 ! D35   D(16,15,17,19)         -3.1346         calculate D2E/DX2 analytically  !
 ! D36   D(15,17,19,20)        179.3303         calculate D2E/DX2 analytically  !
 ! D37   D(15,17,19,21)        -60.1452         calculate D2E/DX2 analytically  !
 ! D38   D(15,17,19,22)         59.902          calculate D2E/DX2 analytically  !
 ! D39   D(18,17,19,20)         -0.6696         calculate D2E/DX2 analytically  !
 ! D40   D(18,17,19,21)        119.8549         calculate D2E/DX2 analytically  !
 ! D41   D(18,17,19,22)       -120.098          calculate D2E/DX2 analytically  !
 --------------------------------------------------------------------------------
 Trust Radius=3.00D-01 FncErr=1.00D-07 GrdErr=1.00D-06
 Number of steps in this run=    108 maximum allowed number of steps=    132.
 GradGradGradGradGradGradGradGradGradGradGradGradGradGradGradGradGradGrad

 Leave Link  103 at Wed Apr 13 01:20:16 2022, MaxMem=  4831838208 cpu:         0.4
 (Enter /hits/fast/mbm/software/gaussian/g09d1/g09/l202.exe)
                          Input orientation:                          
 ---------------------------------------------------------------------
 Center     Atomic      Atomic             Coordinates (Angstroms)
 Number     Number       Type             X           Y           Z
 ---------------------------------------------------------------------
      1          6           0       -0.610000    0.300000   -0.020000
      2          1           0       -0.720000    1.130000    0.510000
      3          1           0       -1.200000    0.330000   -0.830000
      4          1           0       -0.840000   -0.490000    0.540000
      5          6           0        0.830000    0.180000   -0.470000
      6          8           0        1.220000   -0.760000   -1.150000
      7          7           0        1.630000    1.210000   -0.060000
      8          1           0        1.230000    1.960000    0.460000
      9          6           0        3.060000    1.230000   -0.340000
     10          1           0        3.390000    0.290000   -0.280000
     11          6           0        3.340000    1.740000   -1.750000
     12          1           0        4.320000    1.740000   -1.920000
     13          1           0        2.890000    1.130000   -2.410000
     14          1           0        2.980000    2.660000   -1.850000
     15          6           0        3.740000    2.140000    0.710000
     16          8           0        3.080000    2.860000    1.470000
     17          7           0        5.120000    2.090000    0.720000
     18          1           0        5.590000    1.450000    0.110000
     19          6           0        5.890000    2.940000    1.590000
     20          1           0        6.860000    2.750000    1.460000
     21          1           0        5.700000    3.890000    1.380000
     22          1           0        5.640000    2.750000    2.550000
 ---------------------------------------------------------------------
                    Distance matrix (angstroms):
                    1          2          3          4          5
     1  C    0.000000
     2  H    0.990909   0.000000
     3  H    1.002547   1.632789   0.000000
     4  H    0.995289   1.624715   1.636735   0.000000
     5  C    1.513440   2.065284   2.067124   2.063468   0.000000
     6  O    2.397791   3.176681   2.673369   2.678171   1.223969
     7  N    2.418119   2.419463   3.062058   3.057924   1.367114
     8  H    2.524203   2.119882   3.197796   3.208395   2.047755
     9  C    3.799500   3.875681   4.381518   4.352333   2.468258
    10  H    4.008454   4.268700   4.623008   4.378778   2.569397
    11  C    4.546317   4.686502   4.842117   5.262072   3.220574
    12  H    5.476176   5.628375   5.800569   6.135968   4.088545
    13  H    4.318680   4.643113   4.456961   5.023923   2.984912
    14  H    4.669754   4.647634   4.893026   5.497909   3.560520
    15  C    4.779226   4.577303   5.481907   5.284146   3.701635
    16  O    4.731786   4.284215   5.478074   5.239637   4.001062
    17  N    6.048520   5.922103   6.741105   6.496953   4.844409
    18  H    6.307091   6.330758   6.945653   6.730037   4.960534
    19  C    7.198034   6.937910   7.933259   7.626290   6.120850
    20  H    7.999612   7.809180   8.721473   8.404404   6.833059
    21  H    7.393524   7.042081   8.072651   7.915908   6.395584
    22  H    7.188178   6.872816   8.004149   7.518517   6.233891
                    6          7          8          9         10
     6  O    0.000000
     7  N    2.288471   0.000000
     8  H    3.160791   0.996444   0.000000
     9  C    2.828745   1.457292   2.126452   0.000000
    10  H    2.562869   1.998099   2.828798   0.998048   0.000000
    11  C    3.332327   2.461930   3.063429   1.525320   2.065406
    12  H    4.056217   3.313095   3.906520   2.084250   2.378445
    13  H    2.819326   2.667677   3.417806   2.079375   2.343608
    14  H    3.909476   2.670037   2.981376   2.081202   2.872264
    15  C    4.268489   2.431029   2.528834   1.546932   2.127228
    16  O    4.840289   2.676920   2.291855   2.435857   3.124660
    17  N    5.179710   3.682784   3.900846   2.471194   2.689405
    18  H    5.056540   3.970907   4.403658   2.579108   2.517479
    19  C    6.557934   4.884977   4.894170   3.828564   4.095046
    20  H    7.137352   5.659938   5.772434   4.471063   4.595661
    21  H    6.934969   5.081427   4.955018   4.123542   4.588213
    22  H    6.748815   5.026311   4.943713   4.161598   4.372985
                   11         12         13         14         15
    11  C    0.000000
    12  H    0.994636   0.000000
    13  H    1.005087   1.630061   0.000000
    14  H    0.992975   1.626930   1.631748   0.000000
    15  C    2.524203   2.722738   3.387772   2.720588   0.000000
    16  O    3.419123   3.779431   4.252458   3.327522   1.237578
    17  N    3.064604   2.780665   3.961237   3.392551   1.380942
    18  H    2.933633   2.412032   3.707128   3.481063   2.063638
    19  C    4.370137   4.028027   5.317528   4.514432   2.457010
    20  H    4.869764   4.346964   5.776002   5.100843   3.266344
    21  H    4.470906   4.173356   5.466059   4.398204   2.711642
    22  H    4.979970   4.769004   5.898178   5.142344   2.714351
                   16         17         18         19         20
    16  O    0.000000
    17  N    2.305862   0.000000
    18  H    3.183991   1.001299   0.000000
    19  C    2.813699   1.439549   2.121438   0.000000
    20  H    3.781613   2.002698   2.263935   0.996945   0.000000
    21  H    2.816629   2.002998   2.752926   0.991312   1.628373
    22  H    2.780665   2.013678   2.765158   1.010050   1.636001
                   21         22
    21  H    0.000000
    22  H    1.634656   0.000000
 Symmetry turned off by external request.
 Stoichiometry    C6H12N2O2
 Framework group  C1[X(C6H12N2O2)]
 Deg. of freedom    60
 Full point group                 C1      NOp   1
 Rotational constants (GHZ):      2.9524383      0.6519305      0.5828533
 Leave Link  202 at Wed Apr 13 01:20:16 2022, MaxMem=  4831838208 cpu:         0.2
 (Enter /hits/fast/mbm/software/gaussian/g09d1/g09/l301.exe)
 Standard basis: 6-31+G(2df,p) (6D, 7F)
 Ernie: Thresh=  0.10000D-02 Tol=  0.10000D-05 Strict=F.
   380 basis functions,   564 primitive gaussians,   410 cartesian basis functions
    39 alpha electrons       39 beta electrons
       nuclear repulsion energy       552.6257582564 Hartrees.
 IExCor= 3226 DFT=T Ex+Corr=BMK ExCW=0 ScaHFX=  0.420000
 ScaDFX=  1.000000  1.000000  1.000000  1.000000 ScalE2=  1.000000  1.000000
 IRadAn=      0 IRanWt=     -1 IRanGd=            0 ICorTp=0 IEmpDi=  4
 NAtoms=   22 NActive=   22 NUniq=   22 SFac= 1.00D+00 NAtFMM=   60 NAOKFM=F Big=F
 Integral buffers will be    131072 words long.
 Raffenetti 2 integral format.
 Two-electron integral symmetry is turned off.
 Leave Link  301 at Wed Apr 13 01:20:16 2022, MaxMem=  4831838208 cpu:         0.7
 (Enter /hits/fast/mbm/software/gaussian/g09d1/g09/l302.exe)
 NPDir=0 NMtPBC=     1 NCelOv=     1 NCel=       1 NClECP=     1 NCelD=      1
         NCelK=      1 NCelE2=     1 NClLst=     1 CellRange=     0.0.
 One-electron integrals computed using PRISM.
 NBasis=   380 RedAO= T EigKep=  1.35D-05  NBF=   380
 NBsUse=   380 1.00D-06 EigRej= -1.00D+00 NBFU=   380
 Precomputing XC quadrature grid using
 IXCGrd= 4 IRadAn=           0 IRanWt=          -1 IRanGd=           0 AccXCQ= 0.00D+00.
 Generated NRdTot=       0 NPtTot=           0 NUsed=           0 NTot=          32
 NSgBfM=   410   410   410   410   410 MxSgAt=    22 MxSgA2=    22.
 Leave Link  302 at Wed Apr 13 01:20:17 2022, MaxMem=  4831838208 cpu:         8.7
 (Enter /hits/fast/mbm/software/gaussian/g09d1/g09/l303.exe)
 DipDrv:  MaxL=1.
 Leave Link  303 at Wed Apr 13 01:20:17 2022, MaxMem=  4831838208 cpu:         1.0
 (Enter /hits/fast/mbm/software/gaussian/g09d1/g09/l401.exe)
 ExpMin= 4.38D-02 ExpMax= 5.48D+03 ExpMxC= 8.25D+02 IAcc=2 IRadAn=         4 AccDes= 0.00D+00
 Harris functional with IExCor= 1009 and IRadAn=       4 diagonalized for initial guess.
 HarFok:  IExCor= 1009 AccDes= 0.00D+00 IRadAn=         4 IDoV= 1 UseB2=F ITyADJ=14
 ICtDFT=  3500011 ScaDFX=  1.000000  1.000000  1.000000  1.000000
 FoFCou: FMM=F IPFlag=           0 FMFlag=      100000 FMFlg1=           0
         NFxFlg=           0 DoJE=T BraDBF=F KetDBF=T FulRan=T
         wScrn=  0.000000 ICntrl=     500 IOpCl=  0 I1Cent=   200000004 NGrid=           0
         NMat0=    1 NMatS0=      1 NMatT0=    0 NMatD0=    1 NMtDS0=    0 NMtDT0=    0
 Symmetry not used in FoFCou.
 Harris En= -495.491565007393    
 JPrj=0 DoOrth=F DoCkMO=F.
 Leave Link  401 at Wed Apr 13 01:20:18 2022, MaxMem=  4831838208 cpu:        17.9
 (Enter /hits/fast/mbm/software/gaussian/g09d1/g09/l502.exe)
 Closed shell SCF:
 Using DIIS extrapolation, IDIIS=  1040.
 Two-electron integral symmetry not used.
 Keep R1 ints in memory in canonical form, NReq=2655425431.
 IVT=      520126 IEndB=      520126 NGot=  4831838208 MDV=  2211125838
 LenX=  2211125838 LenY=  2210957297
 Requested convergence on RMS density matrix=1.00D-08 within  64 cycles.
 Requested convergence on MAX density matrix=1.00D-06.
 Requested convergence on             energy=1.00D-06.
 No special actions if energy rises.
 FoFCou: FMM=F IPFlag=           0 FMFlag=           0 FMFlg1=           0
         NFxFlg=           0 DoJE=F BraDBF=F KetDBF=F FulRan=T
         wScrn=  0.000000 ICntrl=     600 IOpCl=  0 I1Cent=           0 NGrid=           0
         NMat0=    1 NMatS0=  72390 NMatT0=    0 NMatD0=    1 NMtDS0=    0 NMtDT0=    0
 Symmetry not used in FoFCou.

 Cycle   1  Pass 1  IDiag  1:
 E= -495.201693714159    
 DIIS: error= 2.58D-02 at cycle   1 NSaved=   1.
 NSaved= 1 IEnMin= 1 EnMin= -495.201693714159     IErMin= 1 ErrMin= 2.58D-02
 ErrMax= 2.58D-02  0.00D+00 EMaxC= 1.00D-01 BMatC= 4.02D-01 BMatP= 4.02D-01
 IDIUse=3 WtCom= 7.42D-01 WtEn= 2.58D-01
 Coeff-Com:  0.100D+01
 Coeff-En:   0.100D+01
 Coeff:      0.100D+01
 Gap=     0.335 Goal=   None    Shift=    0.000
 GapD=    0.335 DampG=1.000 DampE=0.500 DampFc=0.5000 IDamp=-1.
 Damping current iteration by 5.00D-01
 RMSDP=4.56D-03 MaxDP=4.94D-01              OVMax= 1.99D-01

 Cycle   2  Pass 1  IDiag  1:
 E= -495.360474819305     Delta-E=       -0.158781105146 Rises=F Damp=T
 DIIS: error= 1.03D-02 at cycle   2 NSaved=   2.
 NSaved= 2 IEnMin= 2 EnMin= -495.360474819305     IErMin= 2 ErrMin= 1.03D-02
 ErrMax= 1.03D-02  0.00D+00 EMaxC= 1.00D-01 BMatC= 3.52D-02 BMatP= 4.02D-01
 IDIUse=3 WtCom= 8.97D-01 WtEn= 1.03D-01
 Coeff-Com:  0.681D-01 0.932D+00
 Coeff-En:   0.531D-01 0.947D+00
 Coeff:      0.666D-01 0.933D+00
 Gap=     0.335 Goal=   None    Shift=    0.000
 RMSDP=2.26D-03 MaxDP=1.49D-01 DE=-1.59D-01 OVMax= 1.19D-01

 Cycle   3  Pass 1  IDiag  1:
 E= -495.526090237364     Delta-E=       -0.165615418059 Rises=F Damp=F
 DIIS: error= 6.17D-03 at cycle   3 NSaved=   3.
 NSaved= 3 IEnMin= 3 EnMin= -495.526090237364     IErMin= 3 ErrMin= 6.17D-03
 ErrMax= 6.17D-03  0.00D+00 EMaxC= 1.00D-01 BMatC= 3.65D-02 BMatP= 3.52D-02
 IDIUse=3 WtCom= 9.38D-01 WtEn= 6.17D-02
 Coeff-Com: -0.279D-01 0.515D+00 0.513D+00
 Coeff-En:   0.000D+00 0.000D+00 0.100D+01
 Coeff:     -0.262D-01 0.484D+00 0.543D+00
 Gap=     0.329 Goal=   None    Shift=    0.000
 RMSDP=6.35D-04 MaxDP=3.79D-02 DE=-1.66D-01 OVMax= 4.78D-02

 Cycle   4  Pass 1  IDiag  1:
 E= -495.552219540873     Delta-E=       -0.026129303509 Rises=F Damp=F
 DIIS: error= 1.81D-03 at cycle   4 NSaved=   4.
 NSaved= 4 IEnMin= 4 EnMin= -495.552219540873     IErMin= 4 ErrMin= 1.81D-03
 ErrMax= 1.81D-03  0.00D+00 EMaxC= 1.00D-01 BMatC= 2.90D-03 BMatP= 3.52D-02
 IDIUse=3 WtCom= 9.82D-01 WtEn= 1.81D-02
 Coeff-Com: -0.436D-02 0.490D-01 0.234D+00 0.722D+00
 Coeff-En:   0.000D+00 0.000D+00 0.240D-01 0.976D+00
 Coeff:     -0.428D-02 0.481D-01 0.230D+00 0.726D+00
 Gap=     0.325 Goal=   None    Shift=    0.000
 RMSDP=1.92D-04 MaxDP=8.61D-03 DE=-2.61D-02 OVMax= 1.23D-02

 Cycle   5  Pass 1  IDiag  1:
 E= -495.554306137479     Delta-E=       -0.002086596606 Rises=F Damp=F
 DIIS: error= 3.76D-04 at cycle   5 NSaved=   5.
 NSaved= 5 IEnMin= 5 EnMin= -495.554306137479     IErMin= 5 ErrMin= 3.76D-04
 ErrMax= 3.76D-04  0.00D+00 EMaxC= 1.00D-01 BMatC= 1.53D-04 BMatP= 2.90D-03
 IDIUse=3 WtCom= 9.96D-01 WtEn= 3.76D-03
 Coeff-Com:  0.251D-03-0.388D-03 0.850D-01 0.340D+00 0.575D+00
 Coeff-En:   0.000D+00 0.000D+00 0.000D+00 0.000D+00 0.100D+01
 Coeff:      0.250D-03-0.386D-03 0.847D-01 0.339D+00 0.577D+00
 Gap=     0.323 Goal=   None    Shift=    0.000
 RMSDP=4.55D-05 MaxDP=2.13D-03 DE=-2.09D-03 OVMax= 4.23D-03

 Cycle   6  Pass 1  IDiag  1:
 E= -495.554427769499     Delta-E=       -0.000121632020 Rises=F Damp=F
 DIIS: error= 1.01D-04 at cycle   6 NSaved=   6.
 NSaved= 6 IEnMin= 6 EnMin= -495.554427769499     IErMin= 6 ErrMin= 1.01D-04
 ErrMax= 1.01D-04  0.00D+00 EMaxC= 1.00D-01 BMatC= 1.07D-05 BMatP= 1.53D-04
 IDIUse=3 WtCom= 9.99D-01 WtEn= 1.01D-03
 Coeff-Com:  0.829D-03-0.508D-02 0.143D-01 0.697D-01 0.247D+00 0.673D+00
 Coeff-En:   0.000D+00 0.000D+00 0.000D+00 0.000D+00 0.000D+00 0.100D+01
 Coeff:      0.829D-03-0.508D-02 0.143D-01 0.696D-01 0.247D+00 0.674D+00
 Gap=     0.323 Goal=   None    Shift=    0.000
 RMSDP=1.51D-05 MaxDP=1.05D-03 DE=-1.22D-04 OVMax= 7.00D-04

 Cycle   7  Pass 1  IDiag  1:
 E= -495.554435724595     Delta-E=       -0.000007955096 Rises=F Damp=F
 DIIS: error= 3.09D-05 at cycle   7 NSaved=   7.
 NSaved= 7 IEnMin= 7 EnMin= -495.554435724595     IErMin= 7 ErrMin= 3.09D-05
 ErrMax= 3.09D-05  0.00D+00 EMaxC= 1.00D-01 BMatC= 1.20D-06 BMatP= 1.07D-05
 IDIUse=1 WtCom= 1.00D+00 WtEn= 0.00D+00
 Coeff-Com:  0.472D-03-0.253D-02-0.577D-03 0.136D-02 0.713D-01 0.303D+00
 Coeff-Com:  0.627D+00
 Coeff:      0.472D-03-0.253D-02-0.577D-03 0.136D-02 0.713D-01 0.303D+00
 Coeff:      0.627D+00
 Gap=     0.323 Goal=   None    Shift=    0.000
 RMSDP=5.17D-06 MaxDP=2.29D-04 DE=-7.96D-06 OVMax= 3.80D-04

 Cycle   8  Pass 1  IDiag  1:
 E= -495.554436530125     Delta-E=       -0.000000805530 Rises=F Damp=F
 DIIS: error= 1.92D-05 at cycle   8 NSaved=   8.
 NSaved= 8 IEnMin= 8 EnMin= -495.554436530125     IErMin= 8 ErrMin= 1.92D-05
 ErrMax= 1.92D-05  0.00D+00 EMaxC= 1.00D-01 BMatC= 3.45D-07 BMatP= 1.20D-06
 IDIUse=1 WtCom= 1.00D+00 WtEn= 0.00D+00
 Coeff-Com:  0.152D-03-0.501D-03-0.295D-02-0.134D-01-0.556D-02 0.352D-01
 Coeff-Com:  0.371D+00 0.616D+00
 Coeff:      0.152D-03-0.501D-03-0.295D-02-0.134D-01-0.556D-02 0.352D-01
 Coeff:      0.371D+00 0.616D+00
 Gap=     0.323 Goal=   None    Shift=    0.000
 RMSDP=2.61D-06 MaxDP=1.78D-04 DE=-8.06D-07 OVMax= 1.98D-04

 Cycle   9  Pass 1  IDiag  1:
 E= -495.554436793298     Delta-E=       -0.000000263173 Rises=F Damp=F
 DIIS: error= 4.62D-06 at cycle   9 NSaved=   9.
 NSaved= 9 IEnMin= 9 EnMin= -495.554436793298     IErMin= 9 ErrMin= 4.62D-06
 ErrMax= 4.62D-06  0.00D+00 EMaxC= 1.00D-01 BMatC= 2.49D-08 BMatP= 3.45D-07
 IDIUse=1 WtCom= 1.00D+00 WtEn= 0.00D+00
 Coeff-Com:  0.294D-04 0.248D-04-0.113D-02-0.612D-02-0.978D-02-0.211D-01
 Coeff-Com:  0.921D-01 0.271D+00 0.675D+00
 Coeff:      0.294D-04 0.248D-04-0.113D-02-0.612D-02-0.978D-02-0.211D-01
 Coeff:      0.921D-01 0.271D+00 0.675D+00
 Gap=     0.323 Goal=   None    Shift=    0.000
 RMSDP=1.03D-06 MaxDP=5.72D-05 DE=-2.63D-07 OVMax= 4.53D-05

 Cycle  10  Pass 1  IDiag  1:
 E= -495.554436815677     Delta-E=       -0.000000022379 Rises=F Damp=F
 DIIS: error= 1.13D-06 at cycle  10 NSaved=  10.
 NSaved=10 IEnMin=10 EnMin= -495.554436815677     IErMin=10 ErrMin= 1.13D-06
 ErrMax= 1.13D-06  0.00D+00 EMaxC= 1.00D-01 BMatC= 1.20D-09 BMatP= 2.49D-08
 IDIUse=1 WtCom= 1.00D+00 WtEn= 0.00D+00
 Coeff-Com: -0.445D-05 0.516D-04 0.854D-04-0.900D-04-0.154D-02-0.908D-02
 Coeff-Com: -0.169D-01-0.697D-03 0.163D+00 0.865D+00
 Coeff:     -0.445D-05 0.516D-04 0.854D-04-0.900D-04-0.154D-02-0.908D-02
 Coeff:     -0.169D-01-0.697D-03 0.163D+00 0.865D+00
 Gap=     0.323 Goal=   None    Shift=    0.000
 RMSDP=2.92D-07 MaxDP=1.87D-05 DE=-2.24D-08 OVMax= 1.29D-05

 Cycle  11  Pass 1  IDiag  1:
 E= -495.554436817009     Delta-E=       -0.000000001331 Rises=F Damp=F
 DIIS: error= 3.25D-07 at cycle  11 NSaved=  11.
 NSaved=11 IEnMin=11 EnMin= -495.554436817009     IErMin=11 ErrMin= 3.25D-07
 ErrMax= 3.25D-07  0.00D+00 EMaxC= 1.00D-01 BMatC= 1.55D-10 BMatP= 1.20D-09
 IDIUse=1 WtCom= 1.00D+00 WtEn= 0.00D+00
 Coeff-Com: -0.295D-05 0.155D-04 0.120D-03 0.392D-03 0.134D-03-0.193D-02
 Coeff-Com: -0.128D-01-0.193D-01 0.117D-01 0.339D+00 0.683D+00
 Coeff:     -0.295D-05 0.155D-04 0.120D-03 0.392D-03 0.134D-03-0.193D-02
 Coeff:     -0.128D-01-0.193D-01 0.117D-01 0.339D+00 0.683D+00
 Gap=     0.323 Goal=   None    Shift=    0.000
 RMSDP=1.06D-07 MaxDP=6.72D-06 DE=-1.33D-09 OVMax= 3.57D-06

 Cycle  12  Pass 1  IDiag  1:
 E= -495.554436817142     Delta-E=       -0.000000000134 Rises=F Damp=F
 DIIS: error= 1.29D-07 at cycle  12 NSaved=  12.
 NSaved=12 IEnMin=12 EnMin= -495.554436817142     IErMin=12 ErrMin= 1.29D-07
 ErrMax= 1.29D-07  0.00D+00 EMaxC= 1.00D-01 BMatC= 2.05D-11 BMatP= 1.55D-10
 IDIUse=1 WtCom= 1.00D+00 WtEn= 0.00D+00
 Coeff-Com: -0.676D-06 0.144D-05 0.465D-04 0.177D-03 0.214D-03 0.332D-04
 Coeff-Com: -0.408D-02-0.875D-02-0.123D-01 0.692D-01 0.311D+00 0.644D+00
 Coeff:     -0.676D-06 0.144D-05 0.465D-04 0.177D-03 0.214D-03 0.332D-04
 Coeff:     -0.408D-02-0.875D-02-0.123D-01 0.692D-01 0.311D+00 0.644D+00
 Gap=     0.323 Goal=   None    Shift=    0.000
 RMSDP=2.38D-08 MaxDP=2.40D-06 DE=-1.34D-10 OVMax= 1.20D-06

 Cycle  13  Pass 1  IDiag  1:
 E= -495.554436817144     Delta-E=       -0.000000000002 Rises=F Damp=F
 DIIS: error= 3.31D-08 at cycle  13 NSaved=  13.
 NSaved=13 IEnMin=13 EnMin= -495.554436817144     IErMin=13 ErrMin= 3.31D-08
 ErrMax= 3.31D-08  0.00D+00 EMaxC= 1.00D-01 BMatC= 1.44D-12 BMatP= 2.05D-11
 IDIUse=1 WtCom= 1.00D+00 WtEn= 0.00D+00
 Coeff-Com:  0.108D-06-0.127D-05 0.490D-05 0.213D-04 0.680D-04 0.213D-03
 Coeff-Com: -0.220D-04-0.114D-02-0.608D-02-0.134D-01 0.351D-01 0.236D+00
 Coeff-Com:  0.749D+00
 Coeff:      0.108D-06-0.127D-05 0.490D-05 0.213D-04 0.680D-04 0.213D-03
 Coeff:     -0.220D-04-0.114D-02-0.608D-02-0.134D-01 0.351D-01 0.236D+00
 Coeff:      0.749D+00
 Gap=     0.323 Goal=   None    Shift=    0.000
 RMSDP=7.48D-09 MaxDP=3.48D-07 DE=-1.82D-12 OVMax= 2.91D-07

 SCF Done:  E(RBMK) =  -495.554436817     A.U. after   13 cycles
            NFock= 13  Conv=0.75D-08     -V/T= 2.0047
 KE= 4.932340425080D+02 PE=-2.262024940996D+03 EE= 7.206107034149D+02
 Leave Link  502 at Wed Apr 13 01:21:42 2022, MaxMem=  4831838208 cpu:       705.4
 (Enter /hits/fast/mbm/software/gaussian/g09d1/g09/l508.exe)
 QCSCF skips out because SCF is already converged.
 Leave Link  508 at Wed Apr 13 01:21:42 2022, MaxMem=  4831838208 cpu:         0.1
 (Enter /hits/fast/mbm/software/gaussian/g09d1/g09/l801.exe)
 DoSCS=F DFT=T ScalE2(SS,OS)=  1.000000  1.000000
 Range of M.O.s used for correlation:     1   380
 NBasis=   380 NAE=    39 NBE=    39 NFC=     0 NFV=     0
 NROrb=    380 NOA=    39 NOB=    39 NVA=   341 NVB=   341

 **** Warning!!: The largest alpha MO coefficient is  0.64491538D+02

 Leave Link  801 at Wed Apr 13 01:21:43 2022, MaxMem=  4831838208 cpu:         0.4
 (Enter /hits/fast/mbm/software/gaussian/g09d1/g09/l1101.exe)
 Using compressed storage, NAtomX=    22.
 Will process     23 centers per pass.
 Leave Link 1101 at Wed Apr 13 01:21:44 2022, MaxMem=  4831838208 cpu:        10.3
 (Enter /hits/fast/mbm/software/gaussian/g09d1/g09/l1102.exe)
 Symmetrizing basis deriv contribution to polar:
 IMax=3 JMax=2 DiffMx= 0.00D+00
 Leave Link 1102 at Wed Apr 13 01:21:44 2022, MaxMem=  4831838208 cpu:         2.1
 (Enter /hits/fast/mbm/software/gaussian/g09d1/g09/l1110.exe)
 Forming Gx(P) for the SCF density, NAtomX=    22.
 Integral derivatives from FoFJK, PRISM(SPDF).
 Do as many integral derivatives as possible in FoFJK.
 G2DrvN: MDV=    4831837928.
 G2DrvN: will do    23 centers at a time, making    1 passes.
 Calling FoFCou, ICntrl=  3107 FMM=F I1Cent=   0 AccDes= 0.00D+00.
 FoFJK:  IHMeth= 1 ICntrl=    3107 DoSepK=F KAlg= 0 I1Cent=   0 FoldK=F
 IRaf=         0 NMat=   1 IRICut=       1 DoRegI=T DoRafI=F ISym2E= 0.
 FoFCou: FMM=F IPFlag=           0 FMFlag=      100000 FMFlg1=           0
         NFxFlg=           0 DoJE=F BraDBF=F KetDBF=F FulRan=T
         wScrn=  0.000000 ICntrl=    3107 IOpCl=  0 I1Cent=           0 NGrid=           0
         NMat0=    1 NMatS0=      1 NMatT0=    0 NMatD0=    1 NMtDS0=    0 NMtDT0=    0
 Symmetry not used in FoFCou.
 End of G2Drv F.D. properties file   721 does not exist.
 End of G2Drv F.D. properties file   722 does not exist.
 End of G2Drv F.D. properties file   788 does not exist.
 Leave Link 1110 at Wed Apr 13 01:23:58 2022, MaxMem=  4831838208 cpu:      2389.7
 (Enter /hits/fast/mbm/software/gaussian/g09d1/g09/l1002.exe)
 Minotr:  Closed shell wavefunction.
          IDoAtm=1111111111111111111111
          Direct CPHF calculation.
          Differentiating once with respect to nuclear coordinates.
          Requested convergence is 1.0D-08 RMS, and 1.0D-07 maximum.
          Secondary convergence is 1.0D-12 RMS, and 1.0D-12 maximum.
          NewPWx=T KeepS1=F KeepF1=F KeepIn=T MapXYZ=F SortEE=F KeepMc=T.
          MDV=    4831837604 using IRadAn=       2.
 Generate precomputed XC quadrature information.
 Keep R1 ints in memory in canonical form, NReq=2654913245.
 FoFCou: FMM=F IPFlag=           0 FMFlag=           0 FMFlg1=           0
         NFxFlg=           0 DoJE=F BraDBF=F KetDBF=F FulRan=T
         wScrn=  0.000000 ICntrl=     600 IOpCl=  0 I1Cent=           0 NGrid=           0
         NMat0=    1 NMatS0=  72390 NMatT0=    0 NMatD0=    1 NMtDS0=    0 NMtDT0=    0
 Symmetry not used in FoFCou.
          Solving linear equations simultaneously, MaxMat=       0.
          There are    69 degrees of freedom in the 1st order CPHF.  IDoFFX=6 NUNeed=     0.
     63 vectors produced by pass  0 Test12= 1.93D-14 1.45D-09 XBig12= 1.25D-01 8.22D-02.
 AX will form    63 AO Fock derivatives at one time.
     63 vectors produced by pass  1 Test12= 1.93D-14 1.45D-09 XBig12= 2.70D-03 1.43D-02.
     63 vectors produced by pass  2 Test12= 1.93D-14 1.45D-09 XBig12= 8.23D-05 1.29D-03.
     63 vectors produced by pass  3 Test12= 1.93D-14 1.45D-09 XBig12= 8.25D-07 8.82D-05.
     63 vectors produced by pass  4 Test12= 1.93D-14 1.45D-09 XBig12= 4.57D-09 6.18D-06.
     63 vectors produced by pass  5 Test12= 1.93D-14 1.45D-09 XBig12= 1.87D-11 3.99D-07.
     48 vectors produced by pass  6 Test12= 1.93D-14 1.45D-09 XBig12= 8.50D-14 2.71D-08.
     24 vectors produced by pass  7 Test12= 1.93D-14 1.45D-09 XBig12= 3.80D-15 7.53D-09.
      1 vectors produced by pass  8 Test12= 1.93D-14 1.45D-09 XBig12= 1.58D-16 1.59D-09.
 InvSVY:  IOpt=1 It=  1 EMax= 8.88D-16
 Solved reduced A of dimension   451 with    69 vectors.
 End of Minotr F.D. properties file   721 does not exist.
 End of Minotr F.D. properties file   722 does not exist.
 End of Minotr F.D. properties file   788 does not exist.
 Leave Link 1002 at Wed Apr 13 01:27:29 2022, MaxMem=  4831838208 cpu:      3705.7
 (Enter /hits/fast/mbm/software/gaussian/g09d1/g09/l601.exe)
 Copying SCF densities to generalized density rwf, IOpCl= 0 IROHF=0.

 **********************************************************************

            Population analysis using the SCF density.

 **********************************************************************

 Alpha  occ. eigenvalues --  -19.53015 -19.50516 -14.71611 -14.69581 -10.60224
 Alpha  occ. eigenvalues --  -10.58204 -10.52616 -10.49815 -10.45554 -10.45435
 Alpha  occ. eigenvalues --   -1.13466  -1.11769  -1.01826  -1.00533  -0.87413
 Alpha  occ. eigenvalues --   -0.82265  -0.80418  -0.73381  -0.66091  -0.64759
 Alpha  occ. eigenvalues --   -0.60182  -0.55381  -0.53408  -0.53265  -0.51907
 Alpha  occ. eigenvalues --   -0.51293  -0.49764  -0.48407  -0.47398  -0.46585
 Alpha  occ. eigenvalues --   -0.45405  -0.44236  -0.43299  -0.42535  -0.39937
 Alpha  occ. eigenvalues --   -0.32019  -0.31418  -0.29725  -0.29488
 Alpha virt. eigenvalues --    0.02823   0.03705   0.05036   0.05224   0.05634
 Alpha virt. eigenvalues --    0.06511   0.07035   0.07575   0.08368   0.08902
 Alpha virt. eigenvalues --    0.09676   0.09962   0.11025   0.11849   0.12291
 Alpha virt. eigenvalues --    0.13323   0.13843   0.14572   0.15515   0.16132
 Alpha virt. eigenvalues --    0.16689   0.17928   0.18645   0.19467   0.20103
 Alpha virt. eigenvalues --    0.20786   0.21904   0.21981   0.23127   0.23998
 Alpha virt. eigenvalues --    0.24971   0.25180   0.25713   0.26874   0.27418
 Alpha virt. eigenvalues --    0.28532   0.29067   0.29705   0.30189   0.30486
 Alpha virt. eigenvalues --    0.30638   0.32158   0.32427   0.32812   0.33664
 Alpha virt. eigenvalues --    0.34355   0.36013   0.36415   0.37069   0.37723
 Alpha virt. eigenvalues --    0.39150   0.39585   0.40699   0.41699   0.42992
 Alpha virt. eigenvalues --    0.45022   0.45533   0.46375   0.47291   0.48577
 Alpha virt. eigenvalues --    0.51013   0.54112   0.55903   0.60817   0.62025
 Alpha virt. eigenvalues --    0.62801   0.65210   0.66162   0.66405   0.67976
 Alpha virt. eigenvalues --    0.68752   0.69789   0.70930   0.72089   0.73246
 Alpha virt. eigenvalues --    0.74014   0.75118   0.77854   0.78183   0.81113
 Alpha virt. eigenvalues --    0.81835   0.82499   0.83327   0.84673   0.87694
 Alpha virt. eigenvalues --    0.89822   0.90691   0.92348   0.92804   0.93095
 Alpha virt. eigenvalues --    0.95265   0.95800   0.97363   0.98682   0.99999
 Alpha virt. eigenvalues --    1.00162   1.01222   1.03272   1.03864   1.04389
 Alpha virt. eigenvalues --    1.06638   1.09040   1.09893   1.11705   1.13622
 Alpha virt. eigenvalues --    1.14338   1.16378   1.18473   1.19939   1.21786
 Alpha virt. eigenvalues --    1.24312   1.26673   1.27738   1.27926   1.29564
 Alpha virt. eigenvalues --    1.31048   1.32154   1.33135   1.34836   1.38045
 Alpha virt. eigenvalues --    1.38349   1.39129   1.41444   1.41786   1.42912
 Alpha virt. eigenvalues --    1.43715   1.47535   1.48232   1.51517   1.52679
 Alpha virt. eigenvalues --    1.54717   1.57081   1.59478   1.60903   1.61766
 Alpha virt. eigenvalues --    1.62845   1.66036   1.68652   1.68972   1.71243
 Alpha virt. eigenvalues --    1.72156   1.73548   1.75264   1.79174   1.81313
 Alpha virt. eigenvalues --    1.82084   1.84980   1.87710   1.91206   1.93816
 Alpha virt. eigenvalues --    1.99200   2.01687   2.03756   2.06121   2.08530
 Alpha virt. eigenvalues --    2.09901   2.11237   2.12340   2.13022   2.13936
 Alpha virt. eigenvalues --    2.16985   2.22176   2.23378   2.26443   2.27353
 Alpha virt. eigenvalues --    2.36509   2.39861   2.44170   2.45440   2.47311
 Alpha virt. eigenvalues --    2.49334   2.53252   2.54709   2.59200   2.60430
 Alpha virt. eigenvalues --    2.60656   2.63163   2.64216   2.65599   2.74154
 Alpha virt. eigenvalues --    2.77256   2.83426   2.87705   2.88516   2.94818
 Alpha virt. eigenvalues --    2.95867   3.02518   3.06707   3.09047   3.11367
 Alpha virt. eigenvalues --    3.12785   3.14191   3.15104   3.16211   3.17491
 Alpha virt. eigenvalues --    3.17817   3.19433   3.20457   3.21232   3.23086
 Alpha virt. eigenvalues --    3.27253   3.27712   3.28518   3.30197   3.31559
 Alpha virt. eigenvalues --    3.34473   3.34672   3.38284   3.39687   3.42326
 Alpha virt. eigenvalues --    3.45793   3.50074   3.51110   3.54096   3.57271
 Alpha virt. eigenvalues --    3.58719   3.60427   3.61615   3.63365   3.65632
 Alpha virt. eigenvalues --    3.66762   3.68687   3.73096   3.73964   3.79309
 Alpha virt. eigenvalues --    3.81831   3.85520   3.88399   3.89784   3.92029
 Alpha virt. eigenvalues --    3.93488   3.93858   3.94328   3.96960   3.98673
 Alpha virt. eigenvalues --    4.01551   4.04484   4.05618   4.11309   4.14665
 Alpha virt. eigenvalues --    4.15256   4.17531   4.21863   4.24744   4.25316
 Alpha virt. eigenvalues --    4.26361   4.26824   4.28443   4.30643   4.32476
 Alpha virt. eigenvalues --    4.34032   4.34764   4.35773   4.38319   4.42482
 Alpha virt. eigenvalues --    4.44486   4.45493   4.47236   4.48519   4.49236
 Alpha virt. eigenvalues --    4.49856   4.51609   4.53113   4.53912   4.55022
 Alpha virt. eigenvalues --    4.56879   4.60581   4.61688   4.64364   4.66488
 Alpha virt. eigenvalues --    4.69140   4.70510   4.73029   4.73958   4.76071
 Alpha virt. eigenvalues --    4.77784   4.81168   4.83360   4.84682   4.86702
 Alpha virt. eigenvalues --    4.89364   4.90187   4.92486   4.93895   4.95814
 Alpha virt. eigenvalues --    4.97961   4.99594   5.02886   5.06742   5.07594
 Alpha virt. eigenvalues --    5.10095   5.11344   5.13280   5.14802   5.16178
 Alpha virt. eigenvalues --    5.17491   5.18990   5.23168   5.23533   5.25029
 Alpha virt. eigenvalues --    5.27331   5.28064   5.34847   5.39065   5.41372
 Alpha virt. eigenvalues --    5.45584   5.46827   5.51667   5.60522   5.63724
 Alpha virt. eigenvalues --    5.66268   5.69883   5.72758   5.79262   5.80242
 Alpha virt. eigenvalues --    5.84799   5.87973   6.10471   6.18319   6.20637
 Alpha virt. eigenvalues --    6.37950   6.49135   6.56870   6.64195   6.68843
 Alpha virt. eigenvalues --    6.92828   7.01457   7.25714   7.54557  11.38820
 Alpha virt. eigenvalues --   11.42879  11.83508  11.89284  12.11335  12.37467
 Alpha virt. eigenvalues --   12.47522  13.01348  13.42757  13.48873  22.76157
 Alpha virt. eigenvalues --   25.42442
          Condensed to atoms (all electrons):
               1          2          3          4          5          6
     1  C    5.164568   0.392310   0.409603   0.402429   0.228640   0.010506
     2  H    0.392310   0.545808  -0.029994  -0.029087  -0.034685  -0.000633
     3  H    0.409603  -0.029994   0.486864  -0.023445  -0.027500  -0.003962
     4  H    0.402429  -0.029087  -0.023445   0.484348  -0.017164  -0.003733
     5  C    0.228640  -0.034685  -0.027500  -0.017164   4.996062   0.359610
     6  O    0.010506  -0.000633  -0.003962  -0.003733   0.359610   8.140884
     7  N   -0.051336   0.001343  -0.005407  -0.005080   0.325152  -0.066458
     8  H   -0.002843   0.003102  -0.000039  -0.000048  -0.014785   0.000684
     9  C   -0.080656   0.007663   0.006004   0.001094  -0.084740   0.018808
    10  H    0.003788  -0.000014  -0.000017   0.000025   0.007989   0.008100
    11  C    0.013198  -0.001592  -0.000269   0.000097  -0.030971  -0.034430
    12  H    0.000244   0.000000  -0.000001   0.000000   0.000835   0.000089
    13  H   -0.004150  -0.000005   0.000007   0.000001  -0.013025   0.002154
    14  H    0.003654  -0.000001  -0.000001   0.000000   0.012069  -0.000260
    15  C    0.018938   0.002774  -0.002082   0.000568  -0.006241   0.014250
    16  O    0.002581  -0.000049  -0.000002  -0.000044   0.006674  -0.000093
    17  N    0.001029   0.000059  -0.000009   0.000012   0.003486  -0.001511
    18  H   -0.000016   0.000000   0.000000   0.000000   0.000186   0.000087
    19  C    0.001052   0.000072  -0.000009   0.000006  -0.000534   0.000076
    20  H    0.000000   0.000000   0.000000   0.000000  -0.000060   0.000000
    21  H    0.000005   0.000000   0.000000   0.000000   0.000213   0.000000
    22  H   -0.000023   0.000000   0.000000   0.000000  -0.000330   0.000000
               7          8          9         10         11         12
     1  C   -0.051336  -0.002843  -0.080656   0.003788   0.013198   0.000244
     2  H    0.001343   0.003102   0.007663  -0.000014  -0.001592   0.000000
     3  H   -0.005407  -0.000039   0.006004  -0.000017  -0.000269  -0.000001
     4  H   -0.005080  -0.000048   0.001094   0.000025   0.000097   0.000000
     5  C    0.325152  -0.014785  -0.084740   0.007989  -0.030971   0.000835
     6  O   -0.066458   0.000684   0.018808   0.008100  -0.034430   0.000089
     7  N    6.550159   0.347813  -0.066126   0.040545   0.088811  -0.003209
     8  H    0.347813   0.377021  -0.081946   0.004152  -0.001781  -0.000116
     9  C   -0.066126  -0.081946   7.855437  -0.025745  -0.252359   0.004578
    10  H    0.040545   0.004152  -0.025745   0.597972   0.058882  -0.001775
    11  C    0.088811  -0.001781  -0.252359   0.058882   5.365894   0.376824
    12  H   -0.003209  -0.000116   0.004578  -0.001775   0.376824   0.551989
    13  H    0.000444  -0.000126  -0.034970  -0.004441   0.457639  -0.029107
    14  H    0.028421   0.000560  -0.226540   0.006870   0.457876  -0.032177
    15  C    0.038891   0.039431  -0.660352   0.147628   0.003508  -0.021089
    16  O   -0.012083   0.007604   0.019081  -0.002045  -0.001184   0.000423
    17  N    0.021231   0.002461  -0.233044   0.017021   0.019038   0.006482
    18  H    0.001429  -0.000003  -0.011234  -0.000320  -0.005801   0.001550
    19  C    0.006922   0.001834  -0.136991   0.013016   0.031508   0.003706
    20  H   -0.000169   0.000000   0.000484   0.000006  -0.001191   0.000001
    21  H    0.000197   0.000000   0.002902  -0.000010  -0.000736  -0.000005
    22  H    0.000182   0.000000  -0.009389   0.000023   0.002527   0.000000
              13         14         15         16         17         18
     1  C   -0.004150   0.003654   0.018938   0.002581   0.001029  -0.000016
     2  H   -0.000005  -0.000001   0.002774  -0.000049   0.000059   0.000000
     3  H    0.000007  -0.000001  -0.002082  -0.000002  -0.000009   0.000000
     4  H    0.000001   0.000000   0.000568  -0.000044   0.000012   0.000000
     5  C   -0.013025   0.012069  -0.006241   0.006674   0.003486   0.000186
     6  O    0.002154  -0.000260   0.014250  -0.000093  -0.001511   0.000087
     7  N    0.000444   0.028421   0.038891  -0.012083   0.021231   0.001429
     8  H   -0.000126   0.000560   0.039431   0.007604   0.002461  -0.000003
     9  C   -0.034970  -0.226540  -0.660352   0.019081  -0.233044  -0.011234
    10  H   -0.004441   0.006870   0.147628  -0.002045   0.017021  -0.000320
    11  C    0.457639   0.457876   0.003508  -0.001184   0.019038  -0.005801
    12  H   -0.029107  -0.032177  -0.021089   0.000423   0.006482   0.001550
    13  H    0.484006  -0.029442  -0.021239   0.000313  -0.001569   0.000004
    14  H   -0.029442   0.528683   0.079378  -0.000204   0.007109  -0.000080
    15  C   -0.021239   0.079378   5.455975   0.319072   0.421051  -0.019740
    16  O    0.000313  -0.000204   0.319072   8.147978  -0.068950  -0.000057
    17  N   -0.001569   0.007109   0.421051  -0.068950   6.547209   0.347316
    18  H    0.000004  -0.000080  -0.019740  -0.000057   0.347316   0.396768
    19  C   -0.000702   0.002867  -0.102377   0.027682   0.275166  -0.014097
    20  H    0.000000   0.000002   0.016063   0.000720  -0.029763  -0.005677
    21  H   -0.000001   0.000005  -0.016749   0.003030  -0.044688   0.002959
    22  H    0.000000   0.000002  -0.013875   0.002085  -0.040228   0.002919
              19         20         21         22
     1  C    0.001052   0.000000   0.000005  -0.000023
     2  H    0.000072   0.000000   0.000000   0.000000
     3  H   -0.000009   0.000000   0.000000   0.000000
     4  H    0.000006   0.000000   0.000000   0.000000
     5  C   -0.000534  -0.000060   0.000213  -0.000330
     6  O    0.000076   0.000000   0.000000   0.000000
     7  N    0.006922  -0.000169   0.000197   0.000182
     8  H    0.001834   0.000000   0.000000   0.000000
     9  C   -0.136991   0.000484   0.002902  -0.009389
    10  H    0.013016   0.000006  -0.000010   0.000023
    11  C    0.031508  -0.001191  -0.000736   0.002527
    12  H    0.003706   0.000001  -0.000005   0.000000
    13  H   -0.000702   0.000000  -0.000001   0.000000
    14  H    0.002867   0.000002   0.000005   0.000002
    15  C   -0.102377   0.016063  -0.016749  -0.013875
    16  O    0.027682   0.000720   0.003030   0.002085
    17  N    0.275166  -0.029763  -0.044688  -0.040228
    18  H   -0.014097  -0.005677   0.002959   0.002919
    19  C    5.032147   0.397087   0.433040   0.435128
    20  H    0.397087   0.528971  -0.029256  -0.028986
    21  H    0.433040  -0.029256   0.511500  -0.034617
    22  H    0.435128  -0.028986  -0.034617   0.507626
 Mulliken charges:
               1
     1  C   -0.513522
     2  H    0.142930
     3  H    0.190259
     4  H    0.190021
     5  C    0.289119
     6  O   -0.444167
     7  N   -0.241671
     8  H    0.317024
     9  C   -0.011959
    10  H    0.128350
    11  C   -0.545490
    12  H    0.140759
    13  H    0.194211
    14  H    0.161209
    15  C    0.306219
    16  O   -0.452530
    17  N   -0.248906
    18  H    0.303806
    19  C   -0.406599
    20  H    0.151769
    21  H    0.172212
    22  H    0.176955
 Sum of Mulliken charges =   0.00000
 Mulliken charges with hydrogens summed into heavy atoms:
               1
     1  C    0.009688
     5  C    0.289119
     6  O   -0.444167
     7  N    0.075352
     9  C    0.116392
    11  C   -0.049311
    15  C    0.306219
    16  O   -0.452530
    17  N    0.054900
    19  C    0.094337
 APT charges:
               1
     1  C   -1.003121
     2  H    0.321449
     3  H    0.385321
     4  H    0.314680
     5  C   -0.035970
     6  O   -0.322850
     7  N   -0.493439
     8  H    0.500367
     9  C   -0.024373
    10  H    0.280659
    11  C   -1.147993
    12  H    0.704452
    13  H    0.136218
    14  H    0.361042
    15  C   -0.322300
    16  O   -0.473530
    17  N   -0.034940
    18  H    0.631843
    19  C   -1.453480
    20  H    1.001283
    21  H    0.463413
    22  H    0.211270
 Sum of APT charges =   0.00000
 APT charges with hydrogens summed into heavy atoms:
               1
     1  C    0.018329
     5  C   -0.035970
     6  O   -0.322850
     7  N    0.006928
     9  C    0.256286
    11  C    0.053719
    15  C   -0.322300
    16  O   -0.473530
    17  N    0.596903
    19  C    0.222485
 Electronic spatial extent (au):  <R**2>=           4646.3086
 Charge=              0.0000 electrons
 Dipole moment (field-independent basis, Debye):
    X=              2.9087    Y=              1.6834    Z=              0.2056  Tot=              3.3670
 Quadrupole moment (field-independent basis, Debye-Ang):
   XX=            -26.7938   YY=            -66.2730   ZZ=            -64.8189
   XY=              7.1295   XZ=             -0.4396   YZ=             -7.2172
 Traceless Quadrupole moment (field-independent basis, Debye-Ang):
   XX=             25.8348   YY=            -13.6444   ZZ=            -12.1904
   XY=              7.1295   XZ=             -0.4396   YZ=             -7.2172
 Octapole moment (field-independent basis, Debye-Ang**2):
  XXX=           -269.3811  YYY=           -271.7542  ZZZ=            -11.8026  XYY=           -166.1282
  XXY=            -25.3740  XXZ=              6.8875  XZZ=           -170.3028  YZZ=            -89.1304
  YYZ=            -13.8921  XYZ=             -7.7343
 Hexadecapole moment (field-independent basis, Debye-Ang**3):
 XXXX=          -2802.1539 YYYY=          -1340.8996 ZZZZ=           -499.9931 XXXY=           -592.9790
 XXXZ=            -68.3565 YYYX=          -1038.1289 YYYZ=           -204.7578 ZZZX=           -199.9449
 ZZZY=           -177.2379 XXYY=           -809.2837 XXZZ=           -763.8955 YYZZ=           -322.1279
 XXYZ=            -11.7833 YYXZ=            -76.2244 ZZXY=           -345.2340
 N-N= 5.526257582564D+02 E-N=-2.262024947704D+03  KE= 4.932340425080D+02
  Exact polarizability:   0.000   0.000   0.000   0.000   0.000   0.000
 Approx polarizability: 111.908   0.252 101.916  -4.345  14.592  96.462
 No NMR shielding tensors so no spin-rotation constants.
 Leave Link  601 at Wed Apr 13 01:27:30 2022, MaxMem=  4831838208 cpu:         6.6
 (Enter /hits/fast/mbm/software/gaussian/g09d1/g09/l701.exe)
 Compute integral second derivatives.
 ... and contract with generalized density number  0.
 Leave Link  701 at Wed Apr 13 01:27:30 2022, MaxMem=  4831838208 cpu:         5.4
 (Enter /hits/fast/mbm/software/gaussian/g09d1/g09/l702.exe)
 L702 exits ... SP integral derivatives will be done elsewhere.
 Leave Link  702 at Wed Apr 13 01:27:31 2022, MaxMem=  4831838208 cpu:         0.3
 (Enter /hits/fast/mbm/software/gaussian/g09d1/g09/l703.exe)
 Compute integral second derivatives, UseDBF=F ICtDFT=           0.
 Integral derivatives from FoFJK, PRISM(SPDF).
 Calling FoFJK, ICntrl=    100147 FMM=F ISym2X=0 I1Cent= 0 IOpClX= 0 NMat=1 NMatS=1 NMatT=0.
 FoFJK:  IHMeth= 1 ICntrl=  100147 DoSepK=F KAlg= 0 I1Cent=   0 FoldK=F
 IRaf=         0 NMat=   1 IRICut=       1 DoRegI=T DoRafI=F ISym2E= 0.
 FoFCou: FMM=F IPFlag=           0 FMFlag=      100000 FMFlg1=         800
         NFxFlg=           0 DoJE=F BraDBF=F KetDBF=F FulRan=T
         wScrn=  0.000000 ICntrl=  100147 IOpCl=  0 I1Cent=           0 NGrid=           0
         NMat0=    1 NMatS0=      1 NMatT0=    0 NMatD0=    1 NMtDS0=    0 NMtDT0=    0
 Symmetry not used in FoFCou.
 Leave Link  703 at Wed Apr 13 01:30:11 2022, MaxMem=  4831838208 cpu:      2865.4
 (Enter /hits/fast/mbm/software/gaussian/g09d1/g09/l716.exe)
 Dipole        = 1.14438218D+00 6.62318616D-01 8.08818430D-02
 Polarizability= 0.00000000D+00 0.00000000D+00 0.00000000D+00
                 0.00000000D+00 0.00000000D+00 0.00000000D+00
 -------------------------------------------------------------------
 Center     Atomic                   Forces (Hartrees/Bohr)
 Number     Number              X              Y              Z
 -------------------------------------------------------------------
      1        6           0.071498523   -0.002984872   -0.029240425
      2        1          -0.014666656    0.075265650    0.049366327
      3        1          -0.045891993    0.000320553   -0.063359597
      4        1          -0.019657387   -0.069665395    0.046663424
      5        6           0.008215036   -0.004216576   -0.007621964
      6        8           0.002591595    0.011308254    0.008605317
      7        7           0.005713559   -0.020798097   -0.011864728
      8        1           0.000606505    0.010003732    0.009045829
      9        6          -0.037169601    0.077226864    0.005682811
     10        1           0.029080746   -0.078560685    0.009348134
     11        6          -0.016637273   -0.030431636    0.061090835
     12        1           0.086290880    0.000859686   -0.016733425
     13        1          -0.034471759   -0.046868224   -0.049038631
     14        1          -0.031221574    0.083476384   -0.009189459
     15        6           0.000096850    0.008482602    0.017696003
     16        8           0.024177484   -0.017752174   -0.022982466
     17        7          -0.035282063   -0.001062430   -0.004108336
     18        1           0.001142790   -0.003629273   -0.004025730
     19        6          -0.041336019   -0.051261852   -0.028060624
     20        1           0.081343931   -0.016573384   -0.012113272
     21        1          -0.016916856    0.088407122   -0.017956943
     22        1          -0.017506717   -0.011546248    0.068796921
 -------------------------------------------------------------------
 Cartesian Forces:  Max     0.088407122 RMS     0.038690442
 FormGI is forming the generalized inverse of G from B-inverse, IUseBI=4.
 Leave Link  716 at Wed Apr 13 01:30:12 2022, MaxMem=  4831838208 cpu:         9.7
 (Enter /hits/fast/mbm/software/gaussian/g09d1/g09/l103.exe)

 GradGradGradGradGradGradGradGradGradGradGradGradGradGradGradGradGradGrad
 Berny optimization.
 Red2BG is reusing G-inverse.
 Internal  Forces:  Max     0.091771778 RMS     0.027655623
 Search for a local minimum.
 Step number   1 out of a maximum of  108
 All quantities printed in internal units (Hartrees-Bohrs-Radians)
 RMS Force = .27656D-01 SwitMx=.10000D-02 MixMth= 1
 Mixed Optimization -- RFO/linear search
 Second derivative matrix not updated -- analytic derivatives used.
 ITU=  0
     Eigenvalues ---   -0.00452   0.00048   0.00066   0.00199   0.00333
     Eigenvalues ---    0.00387   0.00554   0.01712   0.02226   0.03706
     Eigenvalues ---    0.04160   0.04767   0.04993   0.05062   0.05484
     Eigenvalues ---    0.05852   0.06163   0.06245   0.06526   0.06629
     Eigenvalues ---    0.12071   0.12450   0.13077   0.13276   0.13842
     Eigenvalues ---    0.14205   0.14776   0.15041   0.15234   0.15373
     Eigenvalues ---    0.17862   0.18703   0.19095   0.19221   0.20527
     Eigenvalues ---    0.22698   0.23639   0.24432   0.25791   0.32816
     Eigenvalues ---    0.34459   0.36025   0.37688   0.40721   0.42276
     Eigenvalues ---    0.44249   0.51186   0.53331   0.54570   0.56400
     Eigenvalues ---    0.56682   0.58174   0.58429   0.58725   0.58860
     Eigenvalues ---    0.59234   0.59997   0.60080   0.75673   0.83426
 Eigenvalue     1 is  -4.52D-03 should be greater than     0.000000 Eigenvector:
                          D36       D37       D38       D39       D40
   1                   -0.37985  -0.37261  -0.36224  -0.31455  -0.30731
                          D41       D30       D28       D26       D31
   1                   -0.29694  -0.21702  -0.21385  -0.21151  -0.20834
 RFO step:  Lambda=-1.09206225D-01 EMin=-4.52163323D-03
 Linear search not attempted -- first point.
 Maximum step size (   0.300) exceeded in Quadratic search.
    -- Step size scaled by   0.731
 Iteration  1 RMS(Cart)=  0.12032232 RMS(Int)=  0.01409633
 Iteration  2 RMS(Cart)=  0.01773831 RMS(Int)=  0.00038445
 Iteration  3 RMS(Cart)=  0.00046143 RMS(Int)=  0.00004240
 Iteration  4 RMS(Cart)=  0.00000033 RMS(Int)=  0.00004240
 ITry= 1 IFail=0 DXMaxC= 4.82D-01 DCOld= 1.00D+10 DXMaxT= 3.00D-01 DXLimC= 3.00D+00 Rises=F
 Variable       Old X    -DE/DX   Delta X   Delta X   Delta X     New X
                                 (Linear)    (Quad)   (Total)
    R1        1.87255   0.09108   0.00000   0.09433   0.09433   1.96687
    R2        1.89454   0.07821   0.00000   0.08493   0.08493   1.97947
    R3        1.88082   0.08610   0.00000   0.09100   0.09100   1.97182
    R4        2.85999   0.00955   0.00000   0.01133   0.01133   2.87132
    R5        2.31297  -0.01264   0.00000  -0.00819  -0.00819   2.30477
    R6        2.58347  -0.01010   0.00000  -0.01179  -0.01179   2.57168
    R7        1.88301   0.01201   0.00000   0.01471   0.01471   1.89771
    R8        2.75388  -0.00793   0.00000  -0.01440  -0.01440   2.73948
    R9        1.88604   0.08417   0.00000   0.08869   0.08869   1.97472
   R10        2.88244   0.01590   0.00000   0.02411   0.02411   2.90655
   R11        2.92328  -0.00666   0.00000  -0.01304  -0.01304   2.91024
   R12        1.87959   0.08788   0.00000   0.09253   0.09253   1.97212
   R13        1.89934   0.07608   0.00000   0.08254   0.08254   1.98188
   R14        1.87645   0.08959   0.00000   0.09396   0.09396   1.97041
   R15        2.33868  -0.03734   0.00000  -0.02813  -0.02813   2.31056
   R16        2.60960  -0.02867   0.00000  -0.03563  -0.03563   2.57397
   R17        1.89218   0.00531   0.00000   0.00688   0.00688   1.89906
   R18        2.72035   0.01476   0.00000   0.01581   0.01581   2.73616
   R19        1.88395   0.08388   0.00000   0.08871   0.08871   1.97266
   R20        1.87331   0.09177   0.00000   0.09554   0.09554   1.96885
   R21        1.90872   0.07189   0.00000   0.07905   0.07905   1.98777
    A1        1.91957  -0.00123   0.00000  -0.00309  -0.00318   1.91639
    A2        1.91586  -0.00105   0.00000  -0.00433  -0.00432   1.91153
    A3        1.90823   0.00771   0.00000   0.02582   0.02578   1.93401
    A4        1.92021  -0.00094   0.00000  -0.00831  -0.00837   1.91184
    A5        1.89873  -0.00175   0.00000  -0.00148  -0.00155   1.89718
    A6        1.90100  -0.00269   0.00000  -0.00838  -0.00840   1.89260
    A7        2.12852   0.00325   0.00000   0.00077   0.00076   2.12929
    A8        1.99092   0.00901   0.00000   0.01999   0.01997   2.01089
    A9        2.16370  -0.01225   0.00000  -0.02068  -0.02069   2.14301
   A10        2.08137   0.00649   0.00000   0.02326   0.02326   2.10463
   A11        2.12578  -0.00272   0.00000  -0.00951  -0.00951   2.11628
   A12        2.07584  -0.00378   0.00000  -0.01373  -0.01373   2.06212
   A13        1.87546  -0.00030   0.00000  -0.00510  -0.00513   1.87033
   A14        1.94156   0.00165   0.00000   0.00668   0.00666   1.94822
   A15        1.88494  -0.00215   0.00000   0.00018   0.00019   1.88514
   A16        1.88576   0.00132   0.00000   0.00927   0.00927   1.89503
   A17        1.94754  -0.00123   0.00000   0.00110   0.00112   1.94866
   A18        1.92844   0.00070   0.00000  -0.01186  -0.01184   1.91660
   A19        1.91650   0.00270   0.00000   0.00766   0.00765   1.92416
   A20        1.89853  -0.00213   0.00000  -0.00005  -0.00005   1.89848
   A21        1.91381   0.00060   0.00000  -0.00080  -0.00080   1.91301
   A22        1.90594  -0.00026   0.00000   0.00049   0.00048   1.90641
   A23        1.91771  -0.00158   0.00000  -0.00681  -0.00680   1.91091
   A24        1.91119   0.00066   0.00000  -0.00043  -0.00043   1.91076
   A25        2.12309   0.00402   0.00000   0.00495   0.00494   2.12803
   A26        2.00743   0.00343   0.00000   0.00020   0.00018   2.00762
   A27        2.15263  -0.00747   0.00000  -0.00522  -0.00523   2.14740
   A28        2.08037  -0.00105   0.00000  -0.00513  -0.00533   2.07504
   A29        2.11475  -0.00081   0.00000   0.00634   0.00614   2.12089
   A30        2.08807   0.00186   0.00000  -0.00121  -0.00142   2.08666
   A31        1.90614  -0.00237   0.00000  -0.00693  -0.00693   1.89921
   A32        1.91273   0.00194   0.00000   0.01751   0.01750   1.93023
   A33        1.90810   0.00237   0.00000   0.00149   0.00146   1.90957
   A34        1.91931  -0.00019   0.00000  -0.00346  -0.00345   1.91586
   A35        1.90594   0.00026   0.00000  -0.00328  -0.00329   1.90265
   A36        1.91153  -0.00200   0.00000  -0.00539  -0.00543   1.90609
    D1       -3.13341  -0.00044   0.00000  -0.00950  -0.00956   3.14021
    D2       -0.00146   0.00017   0.00000  -0.00107  -0.00109  -0.00254
    D3       -1.03680   0.00161   0.00000   0.00126   0.00125  -1.03555
    D4        2.09516   0.00222   0.00000   0.00969   0.00973   2.10489
    D5        1.05630  -0.00215   0.00000  -0.01461  -0.01461   1.04169
    D6       -2.09493  -0.00155   0.00000  -0.00618  -0.00613  -2.10106
    D7       -0.03492   0.00097   0.00000  -0.01323  -0.01320  -0.04812
    D8        3.08546   0.00045   0.00000  -0.01211  -0.01207   3.07339
    D9        3.09682   0.00170   0.00000  -0.00447  -0.00451   3.09231
   D10       -0.06599   0.00117   0.00000  -0.00335  -0.00338  -0.06937
   D11       -0.62785  -0.00202   0.00000   0.01259   0.01261  -0.61524
   D12        1.43298   0.00033   0.00000   0.02449   0.02449   1.45747
   D13       -2.73113   0.00080   0.00000   0.01405   0.01405  -2.71708
   D14        2.49259  -0.00243   0.00000   0.01414   0.01415   2.50674
   D15       -1.72976  -0.00007   0.00000   0.02604   0.02602  -1.70373
   D16        0.38932   0.00040   0.00000   0.01560   0.01559   0.40491
   D17       -3.13606  -0.00060   0.00000  -0.00525  -0.00528  -3.14134
   D18       -1.05123  -0.00061   0.00000  -0.00013  -0.00015  -1.05138
   D19        1.03839  -0.00074   0.00000  -0.00116  -0.00118   1.03721
   D20       -1.08146   0.00078   0.00000  -0.00197  -0.00194  -1.08340
   D21        1.00337   0.00078   0.00000   0.00315   0.00318   1.00656
   D22        3.09300   0.00065   0.00000   0.00212   0.00215   3.09515
   D23        1.05364   0.00056   0.00000  -0.00197  -0.00198   1.05166
   D24        3.13847   0.00055   0.00000   0.00314   0.00314  -3.14157
   D25       -1.05508   0.00043   0.00000   0.00211   0.00211  -1.05297
   D26       -0.18772  -0.00250   0.00000  -0.12597  -0.12599  -0.31371
   D27        2.96245  -0.00146   0.00000  -0.11699  -0.11699   2.84545
   D28       -2.24526  -0.00009   0.00000  -0.12049  -0.12049  -2.36575
   D29        0.90491   0.00095   0.00000  -0.11152  -0.11149   0.79341
   D30        1.93948  -0.00142   0.00000  -0.12492  -0.12493   1.81454
   D31       -1.19355  -0.00038   0.00000  -0.11595  -0.11593  -1.30948
   D32       -0.06344  -0.00008   0.00000  -0.05806  -0.05801  -0.12146
   D33        3.07815   0.00024   0.00000  -0.02048  -0.02049   3.05766
   D34        3.08688   0.00092   0.00000  -0.04897  -0.04896   3.03792
   D35       -0.05471   0.00124   0.00000  -0.01139  -0.01144  -0.06614
   D36        3.12990   0.00003   0.00000  -0.20634  -0.20635   2.92356
   D37       -1.04973  -0.00048   0.00000  -0.20412  -0.20416  -1.25389
   D38        1.04549  -0.00028   0.00000  -0.19909  -0.19909   0.84639
   D39       -0.01169   0.00036   0.00000  -0.16860  -0.16858  -0.18026
   D40        2.09186  -0.00015   0.00000  -0.16638  -0.16639   1.92547
   D41       -2.09611   0.00004   0.00000  -0.16135  -0.16132  -2.25743
         Item               Value     Threshold  Converged?
 Maximum Force            0.091772     0.000450     NO 
 RMS     Force            0.027656     0.000300     NO 
 Maximum Displacement     0.482249     0.001800     NO 
 RMS     Displacement     0.127988     0.001200     NO 
 Predicted change in Energy=-5.664747D-02
 Lowest energy point so far.  Saving SCF results.
 GradGradGradGradGradGradGradGradGradGradGradGradGradGradGradGradGradGrad

 Leave Link  103 at Wed Apr 13 01:30:12 2022, MaxMem=  4831838208 cpu:         6.4
 (Enter /hits/fast/mbm/software/gaussian/g09d1/g09/l202.exe)
                          Input orientation:                          
 ---------------------------------------------------------------------
 Center     Atomic      Atomic             Coordinates (Angstroms)
 Number     Number       Type             X           Y           Z
 ---------------------------------------------------------------------
      1          6           0       -0.586529    0.242322    0.015656
      2          1           0       -0.757875    1.097936    0.583003
      3          1           0       -1.213830    0.241303   -0.823231
      4          1           0       -0.777224   -0.604252    0.595072
      5          6           0        0.856987    0.187070   -0.455404
      6          8           0        1.280023   -0.732459   -1.135855
      7          7           0        1.634735    1.233282   -0.064858
      8          1           0        1.241917    1.994099    0.459853
      9          6           0        3.051466    1.272218   -0.369666
     10          1           0        3.405475    0.290487   -0.316162
     11          6           0        3.311784    1.810435   -1.786792
     12          1           0        4.336520    1.829041   -1.983451
     13          1           0        2.838559    1.180754   -2.479226
     14          1           0        2.923745    2.774506   -1.871691
     15          6           0        3.736950    2.180723    0.667843
     16          8           0        3.105391    2.976829    1.347791
     17          7           0        5.089522    2.042801    0.750324
     18          1           0        5.535331    1.308184    0.229274
     19          6           0        5.886967    2.898412    1.603830
     20          1           0        6.846393    2.494805    1.683216
     21          1           0        5.941201    3.861288    1.209596
     22          1           0        5.452491    2.940218    2.560878
 ---------------------------------------------------------------------
                    Distance matrix (angstroms):
                    1          2          3          4          5
     1  C    0.000000
     2  H    1.040825   0.000000
     3  H    1.047492   1.708570   0.000000
     4  H    1.043444   1.702340   1.707973   0.000000
     5  C    1.519436   2.125028   2.103929   2.097698   0.000000
     6  O    2.400040   3.233859   2.695412   2.691619   1.219634
     7  N    2.433618   2.482464   3.110221   3.103158   1.360874
     8  H    2.570846   2.194867   3.278611   3.293424   2.061849
     9  C    3.800548   3.930526   4.411492   4.371582   2.449620
    10  H    4.006060   4.335200   4.647313   4.373315   2.554384
    11  C    4.572159   4.762952   4.885878   5.312624   3.230161
    12  H    5.545315   5.751005   5.888413   6.222546   4.139825
    13  H    4.340082   4.724239   4.477358   5.070645   3.001648
    14  H    4.721870   4.731885   4.963458   5.585526   3.601692
    15  C    4.782804   4.624184   5.522217   5.304635   3.678386
    16  O    4.783553   4.363481   5.554467   5.335300   4.011183
    17  N    5.999918   5.925607   6.741937   6.438144   4.776178
    18  H    6.217625   6.306644   6.913549   6.606025   4.859278
    19  C    7.175183   6.959721   7.960663   7.595899   6.073921
    20  H    7.943725   7.809392   8.736575   8.301069   6.765524
    21  H    7.558681   7.273675   8.272312   8.090484   6.490095
    22  H    7.087070   6.773082   7.948344   7.432161   6.147881
                    6          7          8          9         10
     6  O    0.000000
     7  N    2.266493   0.000000
     8  H    3.159408   1.004227   0.000000
     9  C    2.782766   1.449673   2.117471   0.000000
    10  H    2.497171   2.021766   2.861028   1.044979   0.000000
    11  C    3.319350   2.471974   3.060310   1.538080   2.117020
    12  H    4.076993   3.366834   3.946334   2.136754   2.452314
    13  H    2.809637   2.698355   3.442235   2.122249   2.406827
    14  H    3.942345   2.702141   2.978873   2.128207   2.970200
    15  C    4.216212   2.419464   2.510633   1.540031   2.156649
    16  O    4.822788   2.682977   2.286204   2.420385   3.174149
    17  N    5.076615   3.640796   3.858861   2.449866   2.654056
    18  H    4.912784   3.912387   4.353969   2.555309   2.422703
    19  C    6.474027   4.861960   4.868568   3.818279   4.079883
    20  H    7.024732   5.639910   5.758253   4.484474   4.549334
    21  H    6.951995   5.203489   5.111925   4.189023   4.637722
    22  H    6.675618   4.937953   4.799832   4.139472   4.414601
                   11         12         13         14         15
    11  C    0.000000
    12  H    1.043602   0.000000
    13  H    1.048764   1.705859   0.000000
    14  H    1.042696   1.703622   1.707748   0.000000
    15  C    2.518554   2.740899   3.422147   2.731871   0.000000
    16  O    3.350923   3.732328   4.235935   3.230944   1.222694
    17  N    3.106655   2.843630   4.029882   3.478641   1.362085
    18  H    3.043179   2.569940   3.824237   3.658488   2.046421
    19  C    4.394494   4.051669   5.377219   4.568947   2.452289
    20  H    5.000277   4.493011   5.925823   5.301204   3.286071
    21  H    4.483098   4.111031   5.515347   4.447523   2.824273
    22  H    4.976069   4.809473   5.943988   5.105848   2.665238
                   16         17         18         19         20
    16  O    0.000000
    17  N    2.272917   0.000000
    18  H    3.152786   1.004938   0.000000
    19  C    2.794435   1.447916   2.131168   0.000000
    20  H    3.786813   2.039899   2.289301   1.043887   0.000000
    21  H    2.973749   2.059899   2.764796   1.041869   1.706155
    22  H    2.642310   2.053097   2.847239   1.051883   1.706354
                   21         22
    21  H    0.000000
    22  H    1.706801   0.000000
 Symmetry turned off by external request.
 Stoichiometry    C6H12N2O2
 Framework group  C1[X(C6H12N2O2)]
 Deg. of freedom    60
 Full point group                 C1      NOp   1
 Rotational constants (GHZ):      2.8923906      0.6545763      0.5920332
 Leave Link  202 at Wed Apr 13 01:30:12 2022, MaxMem=  4831838208 cpu:         0.2
 (Enter /hits/fast/mbm/software/gaussian/g09d1/g09/l301.exe)
 Standard basis: 6-31+G(2df,p) (6D, 7F)
 Ernie: Thresh=  0.10000D-02 Tol=  0.10000D-05 Strict=F.
   380 basis functions,   564 primitive gaussians,   410 cartesian basis functions
    39 alpha electrons       39 beta electrons
       nuclear repulsion energy       551.8800394971 Hartrees.
 IExCor= 3226 DFT=T Ex+Corr=BMK ExCW=0 ScaHFX=  0.420000
 ScaDFX=  1.000000  1.000000  1.000000  1.000000 ScalE2=  1.000000  1.000000
 IRadAn=      0 IRanWt=     -1 IRanGd=            0 ICorTp=0 IEmpDi=  4
 NAtoms=   22 NActive=   22 NUniq=   22 SFac= 1.00D+00 NAtFMM=   60 NAOKFM=F Big=F
 Integral buffers will be    131072 words long.
 Raffenetti 2 integral format.
 Two-electron integral symmetry is turned off.
 Leave Link  301 at Wed Apr 13 01:30:13 2022, MaxMem=  4831838208 cpu:         1.5
 (Enter /hits/fast/mbm/software/gaussian/g09d1/g09/l302.exe)
 NPDir=0 NMtPBC=     1 NCelOv=     1 NCel=       1 NClECP=     1 NCelD=      1
         NCelK=      1 NCelE2=     1 NClLst=     1 CellRange=     0.0.
 One-electron integrals computed using PRISM.
 NBasis=   380 RedAO= T EigKep=  1.36D-05  NBF=   380
 NBsUse=   380 1.00D-06 EigRej= -1.00D+00 NBFU=   380
 Precomputing XC quadrature grid using
 IXCGrd= 4 IRadAn=           0 IRanWt=          -1 IRanGd=           0 AccXCQ= 0.00D+00.
 Generated NRdTot=       0 NPtTot=           0 NUsed=           0 NTot=          32
 NSgBfM=   410   410   410   410   410 MxSgAt=    22 MxSgA2=    22.
 Leave Link  302 at Wed Apr 13 01:30:13 2022, MaxMem=  4831838208 cpu:         9.0
 (Enter /hits/fast/mbm/software/gaussian/g09d1/g09/l303.exe)
 DipDrv:  MaxL=1.
 Leave Link  303 at Wed Apr 13 01:30:13 2022, MaxMem=  4831838208 cpu:         0.9
 (Enter /hits/fast/mbm/software/gaussian/g09d1/g09/l401.exe)
 Initial guess from the checkpoint file:  "Ala_nat.chk"
 B after Tr=     0.014607    0.022029   -0.004525
         Rot=    0.999993    0.003637    0.000387   -0.000531 Ang=   0.42 deg.
 Guess basis will be translated and rotated to current coordinates.
 JPrj=2 DoOrth=T DoCkMO=T.
 Generating alternative initial guess.
 ExpMin= 4.38D-02 ExpMax= 5.48D+03 ExpMxC= 8.25D+02 IAcc=2 IRadAn=         4 AccDes= 0.00D+00
 Harris functional with IExCor= 1009 and IRadAn=       4 diagonalized for initial guess.
 HarFok:  IExCor= 1009 AccDes= 0.00D+00 IRadAn=         4 IDoV= 1 UseB2=F ITyADJ=14
 ICtDFT=  3500011 ScaDFX=  1.000000  1.000000  1.000000  1.000000
 FoFCou: FMM=F IPFlag=           0 FMFlag=      100000 FMFlg1=           0
         NFxFlg=           0 DoJE=T BraDBF=F KetDBF=T FulRan=T
         wScrn=  0.000000 ICntrl=     500 IOpCl=  0 I1Cent=   200000004 NGrid=           0
         NMat0=    1 NMatS0=      1 NMatT0=    0 NMatD0=    1 NMtDS0=    0 NMtDT0=    0
 Symmetry not used in FoFCou.
 Harris En= -495.503604442195    
[...]
     9  C    2.769093   1.443225   2.093785   0.000000
    10  H    2.547627   2.069084   2.869837   1.098009   0.000000
    11  C    3.253909   2.474599   3.097584   1.545154   2.165638
    12  H    4.042494   3.423398   4.031484   2.195604   2.502583
    13  H    2.697596   2.698753   3.491572   2.161227   2.492931
    14  H    3.937021   2.758394   3.073655   2.179398   3.075619
    15  C    4.212034   2.403335   2.435038   1.537508   2.175643
    16  O    4.807812   2.660208   2.196799   2.408763   3.197952
    17  N    5.073007   3.614371   3.769994   2.438847   2.632768
    18  H    4.912737   3.883983   4.272887   2.529871   2.387205
    19  C    6.479953   4.853280   4.795362   3.820006   4.059275
    20  H    6.967932   5.534629   5.546838   4.479739   4.475745
    21  H    7.096071   5.476454   5.425224   4.363735   4.701594
    22  H    6.685806   4.815820   4.535649   4.060601   4.454222
                   11         12         13         14         15
    11  C    0.000000
    12  H    1.097112   0.000000
    13  H    1.095140   1.780920   0.000000
    14  H    1.096940   1.783450   1.789773   0.000000
    15  C    2.530576   2.819454   3.471146   2.747677   0.000000
    16  O    3.342074   3.799633   4.251760   3.209798   1.216643
    17  N    3.122343   2.910579   4.098096   3.490535   1.353268
    18  H    3.009510   2.549909   3.857832   3.625944   2.034785
    19  C    4.422221   4.121366   5.455543   4.585162   2.463622
    20  H    5.188417   4.804152   6.155610   5.502792   3.250652
    21  H    4.612730   4.155299   5.675996   4.636217   3.097481
    22  H    4.822535   4.740272   5.865745   4.828134   2.541716
                   16         17         18         19         20
    16  O    0.000000
    17  N    2.264887   0.000000
    18  H    3.143503   1.008151   0.000000
    19  C    2.821809   1.449914   2.126658   0.000000
    20  H    3.694112   2.097299   2.441508   1.095946   0.000000
    21  H    3.425654   2.115087   2.601959   1.098299   1.787389
    22  H    2.401503   2.067337   2.968678   1.093403   1.785932
                   21         22
    21  H    0.000000
    22  H    1.782542   0.000000
 Symmetry turned off by external request.
 Stoichiometry    C6H12N2O2
 Framework group  C1[X(C6H12N2O2)]
 Deg. of freedom    60
 Full point group                 C1      NOp   1
 Rotational constants (GHZ):      2.9049864      0.6543358      0.5906917
 Leave Link  202 at Wed Apr 13 01:54:03 2022, MaxMem=  4831838208 cpu:         0.3
 (Enter /hits/fast/mbm/software/gaussian/g09d1/g09/l601.exe)
 Copying SCF densities to generalized density rwf, IOpCl= 0 IROHF=0.

 **********************************************************************

            Population analysis using the SCF density.

 **********************************************************************

 Alpha  occ. eigenvalues --  -19.52702 -19.50466 -14.71712 -14.69616 -10.59836
 Alpha  occ. eigenvalues --  -10.58337 -10.53321 -10.52106 -10.47951 -10.47928
 Alpha  occ. eigenvalues --   -1.14673  -1.12369  -1.01970  -1.00561  -0.85655
 Alpha  occ. eigenvalues --   -0.80049  -0.78199  -0.71497  -0.65900  -0.63858
 Alpha  occ. eigenvalues --   -0.59666  -0.54475  -0.52855  -0.52122  -0.51307
 Alpha  occ. eigenvalues --   -0.50227  -0.48426  -0.46809  -0.45662  -0.44789
 Alpha  occ. eigenvalues --   -0.44605  -0.43265  -0.42282  -0.41827  -0.39352
 Alpha  occ. eigenvalues --   -0.32229  -0.31355  -0.29847  -0.29435
 Alpha virt. eigenvalues --    0.02777   0.04012   0.04949   0.05150   0.05757
 Alpha virt. eigenvalues --    0.06341   0.06933   0.07645   0.08461   0.08817
 Alpha virt. eigenvalues --    0.09489   0.09892   0.10925   0.11584   0.12044
 Alpha virt. eigenvalues --    0.13161   0.13448   0.14387   0.14739   0.15828
 Alpha virt. eigenvalues --    0.16612   0.17331   0.17962   0.19164   0.19492
 Alpha virt. eigenvalues --    0.19728   0.20420   0.21271   0.22186   0.22635
 Alpha virt. eigenvalues --    0.23340   0.24138   0.25497   0.26337   0.26942
 Alpha virt. eigenvalues --    0.27240   0.27539   0.28343   0.28988   0.29257
 Alpha virt. eigenvalues --    0.30175   0.31282   0.31583   0.33000   0.33214
 Alpha virt. eigenvalues --    0.33942   0.34568   0.36554   0.36842   0.37261
 Alpha virt. eigenvalues --    0.38182   0.39396   0.40150   0.40656   0.41736
 Alpha virt. eigenvalues --    0.44326   0.45406   0.45866   0.47816   0.49931
 Alpha virt. eigenvalues --    0.51884   0.53916   0.55436   0.61436   0.62725
 Alpha virt. eigenvalues --    0.63770   0.64693   0.65733   0.67576   0.68549
 Alpha virt. eigenvalues --    0.69132   0.70438   0.72271   0.72625   0.73600
 Alpha virt. eigenvalues --    0.74340   0.75895   0.76959   0.78993   0.80229
 Alpha virt. eigenvalues --    0.80530   0.82975   0.83443   0.84107   0.85892
 Alpha virt. eigenvalues --    0.86840   0.87042   0.88919   0.89495   0.90717
 Alpha virt. eigenvalues --    0.91796   0.94355   0.95826   0.97987   0.99386
 Alpha virt. eigenvalues --    0.99982   1.01562   1.02206   1.02816   1.04093
 Alpha virt. eigenvalues --    1.06010   1.07511   1.08097   1.09583   1.10819
 Alpha virt. eigenvalues --    1.11641   1.13667   1.16638   1.19087   1.20674
 Alpha virt. eigenvalues --    1.24355   1.26453   1.27425   1.28371   1.28852
 Alpha virt. eigenvalues --    1.31146   1.31911   1.33166   1.34196   1.36856
 Alpha virt. eigenvalues --    1.38420   1.39782   1.40468   1.41777   1.42123
 Alpha virt. eigenvalues --    1.43878   1.47201   1.48667   1.52246   1.53326
 Alpha virt. eigenvalues --    1.54140   1.57489   1.59644   1.60654   1.61031
 Alpha virt. eigenvalues --    1.63069   1.63640   1.65973   1.67639   1.69726
 Alpha virt. eigenvalues --    1.70730   1.71856   1.74562   1.77023   1.81259
 Alpha virt. eigenvalues --    1.82112   1.83861   1.86127   1.87432   1.90924
 Alpha virt. eigenvalues --    1.92654   1.95488   1.96490   2.00399   2.03216
 Alpha virt. eigenvalues --    2.04135   2.05588   2.06801   2.07101   2.09917
 Alpha virt. eigenvalues --    2.12689   2.13942   2.20275   2.22701   2.28589
 Alpha virt. eigenvalues --    2.35472   2.37759   2.38499   2.38966   2.40764
 Alpha virt. eigenvalues --    2.44057   2.47246   2.49122   2.51447   2.52158
 Alpha virt. eigenvalues --    2.54069   2.57317   2.58748   2.59752   2.69913
 Alpha virt. eigenvalues --    2.73439   2.78543   2.81532   2.85961   2.88997
 Alpha virt. eigenvalues --    2.91108   2.93991   2.94971   2.97819   3.00141
 Alpha virt. eigenvalues --    3.00852   3.02165   3.03821   3.04153   3.05272
 Alpha virt. eigenvalues --    3.06069   3.09609   3.10597   3.11531   3.14430
 Alpha virt. eigenvalues --    3.15470   3.18975   3.21536   3.22855   3.23646
 Alpha virt. eigenvalues --    3.26261   3.29639   3.30059   3.34646   3.36498
 Alpha virt. eigenvalues --    3.39261   3.41293   3.41966   3.43206   3.45129
 Alpha virt. eigenvalues --    3.47449   3.48330   3.50065   3.53832   3.56451
 Alpha virt. eigenvalues --    3.58748   3.62605   3.65705   3.69510   3.70667
 Alpha virt. eigenvalues --    3.73925   3.76107   3.76655   3.79869   3.81561
 Alpha virt. eigenvalues --    3.83238   3.86530   3.89388   3.90418   3.92098
 Alpha virt. eigenvalues --    3.93880   3.98228   4.03110   4.03999   4.07776
 Alpha virt. eigenvalues --    4.12221   4.15327   4.17348   4.20884   4.21470
 Alpha virt. eigenvalues --    4.24568   4.25673   4.27067   4.28751   4.32364
 Alpha virt. eigenvalues --    4.33074   4.34246   4.34738   4.37986   4.40594
 Alpha virt. eigenvalues --    4.43713   4.46273   4.46794   4.48042   4.49866
 Alpha virt. eigenvalues --    4.50297   4.52195   4.52805   4.54094   4.55167
 Alpha virt. eigenvalues --    4.57820   4.59644   4.62179   4.62795   4.65857
 Alpha virt. eigenvalues --    4.67824   4.69627   4.70686   4.73355   4.75716
 Alpha virt. eigenvalues --    4.76458   4.77946   4.79387   4.80703   4.81990
 Alpha virt. eigenvalues --    4.82373   4.84447   4.86171   4.87209   4.88932
 Alpha virt. eigenvalues --    4.89528   4.90674   4.91768   4.94769   4.97547
 Alpha virt. eigenvalues --    5.01425   5.01883   5.04001   5.06439   5.08349
 Alpha virt. eigenvalues --    5.10350   5.16452   5.21296   5.22301   5.23753
 Alpha virt. eigenvalues --    5.25977   5.27936   5.29183   5.33498   5.40149
 Alpha virt. eigenvalues --    5.41863   5.45376   5.51041   5.59016   5.62507
 Alpha virt. eigenvalues --    5.63913   5.70944   5.71361   5.72403   5.73277
 Alpha virt. eigenvalues --    5.79398   5.85318   5.86827   6.01749   6.13446
 Alpha virt. eigenvalues --    6.19256   6.20775   6.58417   6.62942   6.66507
 Alpha virt. eigenvalues --    6.78123   6.97446   7.07840   7.11271  11.38931
 Alpha virt. eigenvalues --   11.42984  11.75587  11.80100  12.01796  12.41751
 Alpha virt. eigenvalues --   12.47484  12.94579  13.45972  13.48147  22.28814
 Alpha virt. eigenvalues --   25.80954
          Condensed to atoms (all electrons):
               1          2          3          4          5          6
     1  C    5.301327   0.390816   0.401406   0.387250   0.198299   0.013270
     2  H    0.390816   0.523855  -0.023540  -0.024065  -0.043211   0.000206
     3  H    0.401406  -0.023540   0.478322  -0.020340  -0.029779  -0.003797
     4  H    0.387250  -0.024065  -0.020340   0.483025  -0.019881  -0.004092
     5  C    0.198299  -0.043211  -0.029779  -0.019881   5.069713   0.331205
     6  O    0.013270   0.000206  -0.003797  -0.004092   0.331205   8.159668
     7  N   -0.046233   0.003183  -0.006160  -0.005268   0.318626  -0.069801
     8  H    0.000323   0.001649  -0.000018  -0.000060  -0.019019   0.000728
     9  C   -0.054647   0.007790   0.002580   0.002724  -0.116946   0.029672
    10  H    0.001498  -0.000004  -0.000011   0.000026   0.015864   0.006498
    11  C   -0.002601  -0.001348  -0.000201  -0.000276  -0.030544  -0.031030
    12  H    0.000187   0.000000   0.000000   0.000000   0.002971   0.000160
    13  H   -0.006382  -0.000003   0.000006   0.000001  -0.014221   0.000735
    14  H    0.002938  -0.000002  -0.000001   0.000000   0.011976  -0.000285
    15  C    0.008429   0.001928  -0.001030  -0.000321  -0.004161   0.006358
    16  O   -0.001840  -0.000174  -0.000005  -0.000018   0.012152   0.000172
    17  N   -0.000075   0.000044  -0.000008   0.000012   0.005533  -0.001925
    18  H    0.000126   0.000000   0.000000   0.000000   0.001267   0.000101
    19  C    0.000841   0.000052  -0.000006   0.000005   0.000155  -0.000215
    20  H    0.000004   0.000000   0.000000   0.000000  -0.000140   0.000000
    21  H   -0.000003   0.000000   0.000000   0.000000   0.000038   0.000000
    22  H   -0.000002   0.000000   0.000000   0.000000  -0.000011   0.000000
               7          8          9         10         11         12
     1  C   -0.046233   0.000323  -0.054647   0.001498  -0.002601   0.000187
     2  H    0.003183   0.001649   0.007790  -0.000004  -0.001348   0.000000
     3  H   -0.006160  -0.000018   0.002580  -0.000011  -0.000201   0.000000
     4  H   -0.005268  -0.000060   0.002724   0.000026  -0.000276   0.000000
     5  C    0.318626  -0.019019  -0.116946   0.015864  -0.030544   0.002971
     6  O   -0.069801   0.000728   0.029672   0.006498  -0.031030   0.000160
     7  N    6.532602   0.339911  -0.010643   0.026414   0.071905   0.000943
     8  H    0.339911   0.369619  -0.054713   0.003519  -0.006352  -0.000096
     9  C   -0.010643  -0.054713   7.562452   0.048035  -0.284482  -0.011022
    10  H    0.026414   0.003519   0.048035   0.580935   0.040070  -0.001663
    11  C    0.071905  -0.006352  -0.284482   0.040070   5.547314   0.373652
    12  H    0.000943  -0.000096  -0.011022  -0.001663   0.373652   0.535383
    13  H    0.002843  -0.000142  -0.074997  -0.002695   0.463993  -0.023345
    14  H    0.024260   0.000276  -0.192284   0.004591   0.441640  -0.026119
    15  C    0.003747   0.020247  -0.406586   0.103450  -0.007261  -0.018755
    16  O   -0.015639   0.011632  -0.007974  -0.002546   0.004331   0.000237
    17  N    0.021092   0.002272  -0.178347   0.016303   0.010441   0.006794
    18  H    0.001754  -0.000002   0.007628   0.000664  -0.007073   0.000851
    19  C    0.006926   0.001684  -0.146960   0.013028   0.030904   0.002970
    20  H   -0.000147   0.000000   0.003655   0.000013  -0.000289   0.000000
    21  H   -0.000016   0.000000   0.000810  -0.000007   0.001481   0.000006
    22  H    0.000127  -0.000005  -0.008017  -0.000004   0.000241   0.000000
              13         14         15         16         17         18
     1  C   -0.006382   0.002938   0.008429  -0.001840  -0.000075   0.000126
     2  H   -0.000003  -0.000002   0.001928  -0.000174   0.000044   0.000000
     3  H    0.000006  -0.000001  -0.001030  -0.000005  -0.000008   0.000000
     4  H    0.000001   0.000000  -0.000321  -0.000018   0.000012   0.000000
     5  C   -0.014221   0.011976  -0.004161   0.012152   0.005533   0.001267
     6  O    0.000735  -0.000285   0.006358   0.000172  -0.001925   0.000101
     7  N    0.002843   0.024260   0.003747  -0.015639   0.021092   0.001754
     8  H   -0.000142   0.000276   0.020247   0.011632   0.002272  -0.000002
     9  C   -0.074997  -0.192284  -0.406586  -0.007974  -0.178347   0.007628
    10  H   -0.002695   0.004591   0.103450  -0.002546   0.016303   0.000664
    11  C    0.463993   0.441640  -0.007261   0.004331   0.010441  -0.007073
    12  H   -0.023345  -0.026119  -0.018755   0.000237   0.006794   0.000851
    13  H    0.474492  -0.023326  -0.004948   0.000399  -0.000203  -0.000010
    14  H   -0.023326   0.516109   0.055718   0.000729   0.006070  -0.000005
    15  C   -0.004948   0.055718   5.301618   0.325798   0.415354  -0.036097
    16  O    0.000399   0.000729   0.325798   8.168725  -0.067323  -0.001486
    17  N   -0.000203   0.006070   0.415354  -0.067323   6.458366   0.345688
    18  H   -0.000010  -0.000005  -0.036097  -0.001486   0.345688   0.403479
    19  C   -0.000133   0.002262  -0.093094   0.005566   0.258190  -0.017688
    20  H    0.000000   0.000000   0.007793   0.001005  -0.039860  -0.002504
    21  H   -0.000001   0.000001   0.000468   0.002882  -0.050138  -0.000305
    22  H    0.000000   0.000002  -0.020491   0.002090  -0.030327   0.003283
              19         20         21         22
     1  C    0.000841   0.000004  -0.000003  -0.000002
     2  H    0.000052   0.000000   0.000000   0.000000
     3  H   -0.000006   0.000000   0.000000   0.000000
     4  H    0.000005   0.000000   0.000000   0.000000
     5  C    0.000155  -0.000140   0.000038  -0.000011
     6  O   -0.000215   0.000000   0.000000   0.000000
     7  N    0.006926  -0.000147  -0.000016   0.000127
     8  H    0.001684   0.000000   0.000000  -0.000005
     9  C   -0.146960   0.003655   0.000810  -0.008017
    10  H    0.013028   0.000013  -0.000007  -0.000004
    11  C    0.030904  -0.000289   0.001481   0.000241
    12  H    0.002970   0.000000   0.000006   0.000000
    13  H   -0.000133   0.000000  -0.000001   0.000000
    14  H    0.002262   0.000000   0.000001   0.000002
    15  C   -0.093094   0.007793   0.000468  -0.020491
    16  O    0.005566   0.001005   0.002882   0.002090
    17  N    0.258190  -0.039860  -0.050138  -0.030327
    18  H   -0.017688  -0.002504  -0.000305   0.003283
    19  C    5.216572   0.391975   0.402890   0.426780
    20  H    0.391975   0.524062  -0.033077  -0.019730
    21  H    0.402890  -0.033077   0.531384  -0.024749
    22  H    0.426780  -0.019730  -0.024749   0.455549
 Mulliken charges:
               1
     1  C   -0.594930
     2  H    0.162823
     3  H    0.202582
     4  H    0.201278
     5  C    0.310115
     6  O   -0.437628
     7  N   -0.200429
     8  H    0.328549
     9  C   -0.117728
    10  H    0.146019
    11  C   -0.614515
    12  H    0.156847
    13  H    0.207935
    14  H    0.175448
    15  C    0.341835
    16  O   -0.438712
    17  N   -0.177952
    18  H    0.300329
    19  C   -0.502706
    20  H    0.167240
    21  H    0.168337
    22  H    0.215263
 Sum of Mulliken charges =   0.00000
 Mulliken charges with hydrogens summed into heavy atoms:
               1
     1  C   -0.028247
     5  C    0.310115
     6  O   -0.437628
     7  N    0.128119
     9  C    0.028291
    11  C   -0.074285
    15  C    0.341835
    16  O   -0.438712
    17  N    0.122377
    19  C    0.048135
 Electronic spatial extent (au):  <R**2>=           4670.4087
 Charge=              0.0000 electrons
 Dipole moment (field-independent basis, Debye):
    X=              2.6844    Y=              1.2235    Z=              0.7104  Tot=              3.0344
 Quadrupole moment (field-independent basis, Debye-Ang):
   XX=            -29.7641   YY=            -67.7797   ZZ=            -64.8371
   XY=              6.0590   XZ=              0.6940   YZ=             -6.3976
 Traceless Quadrupole moment (field-independent basis, Debye-Ang):
   XX=             24.3629   YY=            -13.6527   ZZ=            -10.7102
   XY=              6.0590   XZ=              0.6940   YZ=             -6.3976
 Octapole moment (field-independent basis, Debye-Ang**2):
  XXX=           -293.8328  YYY=           -284.8294  ZZZ=             -5.9183  XYY=           -172.4689
  XXY=            -35.1964  XXZ=              9.4344  XZZ=           -170.7939  YZZ=            -88.2076
  YYZ=            -11.8275  XYZ=             -7.5934
 Hexadecapole moment (field-independent basis, Debye-Ang**3):
 XXXX=          -3006.6460 YYYY=          -1409.9277 ZZZZ=           -522.1124 XXXY=           -677.6036
 XXXZ=            -67.8089 YYYX=          -1083.2743 YYYZ=           -193.6137 ZZZX=           -187.9836
 ZZZY=           -158.1896 XXYY=           -849.8080 XXZZ=           -770.4592 YYZZ=           -323.0307
 XXYZ=            -18.1277 YYXZ=            -77.7645 ZZXY=           -345.6455
 N-N= 5.503707999173D+02 E-N=-2.256822309055D+03  KE= 4.919407088132D+02
 No NMR shielding tensors so no spin-rotation constants.
 Leave Link  601 at Wed Apr 13 01:54:04 2022, MaxMem=  4831838208 cpu:         3.4
 (Enter /hits/fast/mbm/software/gaussian/g09d1/g09/l9999.exe)
 1\1\GINC-CASCADE-028\FOpt\RBMK\6-31+G(2df,p)\C6H12N2O2\HARTMAEC\13-Apr
 -2022\0\\#p BMK/6-31+g(2df,p) Opt=(calcfc,modredundant) nosymmetry scf
 =xqc\\Ala_nat\\0,1\C,-0.5773601519,0.2124916723,0.0089495677\H,-0.8318
 273236,1.1120891573,0.5790149085\H,-1.2370381175,0.1266318965,-0.86091
 20864\H,-0.7362100675,-0.6713162695,0.6379360645\C,0.8647737412,0.1980
 271925,-0.478790904\O,1.2829849325,-0.6664147818,-1.2269542447\N,1.655
 6451968,1.1989622996,-0.0195663264\H,1.31818179,1.8977089406,0.6281239
 807\C,3.0541768119,1.2804739876,-0.3665011029\H,3.4770266329,0.2677961
 609,-0.3303854658\C,3.2596966583,1.8572623442,-1.7851540749\H,4.321502
 2161,1.8660481712,-2.0610999536\H,2.7169567324,1.2305269398,-2.5006729
 015\H,2.8746010189,2.8833023891,-1.8322661681\C,3.7365649831,2.1773579
 774,0.6793848229\O,3.0983945613,2.9502492321,1.3690205154\N,5.08308024
 34,2.057495989,0.7415443818\H,5.5318880232,1.391227711,0.1324244545\C,
 5.9094204182,2.8785726106,1.6048202179\H,6.6473393288,2.2567242508,2.1
 243189178\H,6.4334658217,3.658507259,1.0361905029\H,5.2567365498,3.356
 2748699,2.3405748934\\Version=ES64L-G09RevD.01\HF=-495.6308528\RMSD=6.
 038e-09\RMSF=3.183e-06\Dipole=1.0561403,0.481364,0.2794962\Quadrupole=
 18.113191,-10.1504533,-7.9627377,4.5047329,0.5159909,-4.7564242\PG=C01
  [X(C6H12N2O2)]\\@


 ADAM SMITH SAID, "THE REAL PRICE OF ANYTHING IS THE TOIL AND TROUBLE
 OF ACQUIRING IT."  BUT IN ALL UNDERTAKINGS WITH NATURE WE SHOULD FIRST
 READ CAREFULLY THE SMALL PRINT IN THE CONTRACT. THIS MIGHT DISCLOSE
 THAT THE REAL PRICE IS TO BE PAID BY THOSE WHO INHERIT THE DEPLETION
 AND DESPOILATION THAT FOLLOWS.
                               -- E. R. HARRISON IN "COSMOLOGY" (1980)
 Job cpu time:       0 days  7 hours  0 minutes  4.3 seconds.
 File lengths (MBytes):  RWF=    327 Int=      0 D2E=      0 Chk=     12 Scr=      1
 Normal termination of Gaussian 09 at Wed Apr 13 01:54:04 2022.
